<?xml version="1.0" encoding="UTF-8"?>

<!-- generated on 2023-05-02 13:28:33 by Eclipse SUMO GUI Version 1.15.0
<configuration xmlns:xsi="http://www.w3.org/2001/XMLSchema-instance" xsi:noNamespaceSchemaLocation="http://sumo.dlr.de/xsd/sumoConfiguration.xsd">

    <input>
        <net-file value="C:\Users\dell\Sumo\b15 c100\osm.net.xml.gz"/>
        <route-files value="C:\Users\dell\Sumo\b15 c100\osm_pt.rou.xml,C:\Users\dell\Sumo\b15 c100\osm.bus.trips.xml,C:\Users\dell\Sumo\b15 c100\osm.passenger.trips.xml"/>
        <additional-files value="C:\Users\dell\Sumo\b15 c100\osm.poly.xml.gz,C:\Users\dell\Sumo\b15 c100\osm_stops.add.xml"/>
    </input>

    <output>
        <emission-output value="C:\Users\dell\Sumo\b15 c100\emissions_c100_b15.xml"/>
        <tripinfo-output value="C:\Users\dell\Sumo\b15 c100\tripinfo_c100_b15.xml"/>
    </output>

    <time>
        <begin value="0"/>
        <end value="600"/>
    </time>

    <processing>
        <ignore-route-errors value="true"/>
    </processing>

    <routing>
        <device.rerouting.adaptation-steps value="18"/>
        <device.rerouting.adaptation-interval value="10"/>
    </routing>

    <report>
        <verbose value="true"/>
        <duration-log.statistics value="true"/>
        <no-step-log value="true"/>
    </report>

    <gui_only>
        <gui-settings-file value="C:\Users\dell\Sumo\b15 c100\osm.view.xml"/>
    </gui_only>

</configuration>
-->

<tripinfos xmlns:xsi="http://www.w3.org/2001/XMLSchema-instance" xsi:noNamespaceSchemaLocation="http://sumo.dlr.de/xsd/tripinfo_file.xsd">
    <tripinfo id="veh9" depart="2.00" departLane="1130603776_0" departPos="5.10" departSpeed="26.05" departDelay="0.01" arrival="54.00" arrivalLane="1102881626#0_0" arrivalPos="35.16" arrivalSpeed="25.43" duration="52.00" routeLength="1254.20" waitingTime="0.00" waitingCount="0" stopTime="0.00" timeLoss="2.97" rerouteNo="1" devices="tripinfo_veh9 routing_veh9 emissions_veh9" vType="veh_passenger" speedFactor="0.94" vaporized="">
        <emissions CO_abs="3360.677202" CO2_abs="284810.914194" HC_abs="22.064885" PMx_abs="5.830673" NOx_abs="108.627264" fuel_abs="90840.944269" electricity_abs="0"/>
    </tripinfo>
    <tripinfo id="veh38" depart="9.00" departLane="103477632#4_0" departPos="5.10" departSpeed="0.00" departDelay="0.61" arrival="58.00" arrivalLane="-1111799487#2_0" arrivalPos="38.09" arrivalSpeed="18.57" duration="49.00" routeLength="555.58" waitingTime="2.00" waitingCount="1" stopTime="0.00" timeLoss="26.42" rerouteNo="1" devices="tripinfo_veh38 routing_veh38 emissions_veh38" vType="veh_passenger" speedFactor="1.18" vaporized="">
        <emissions CO_abs="5501.456891" CO2_abs="302006.623435" HC_abs="32.352858" PMx_abs="6.476446" NOx_abs="130.452039" fuel_abs="96325.520419" electricity_abs="0"/>
    </tripinfo>
    <tripinfo id="veh26" depart="6.00" departLane="103594716#6_0" departPos="5.10" departSpeed="0.00" departDelay="0.26" arrival="65.00" arrivalLane="1124391477_0" arrivalPos="52.67" arrivalSpeed="16.77" duration="59.00" routeLength="1063.52" waitingTime="0.00" waitingCount="0" stopTime="0.00" timeLoss="13.27" rerouteNo="1" devices="tripinfo_veh26 routing_veh26 emissions_veh26" vType="veh_passenger" speedFactor="0.87" vaporized="">
        <emissions CO_abs="4072.560935" CO2_abs="297120.977323" HC_abs="25.487423" PMx_abs="5.903406" NOx_abs="118.343046" fuel_abs="94767.381035" electricity_abs="0"/>
    </tripinfo>
    <tripinfo id="veh18" depart="4.00" departLane="1102881626#2_0" departPos="5.10" departSpeed="0.00" departDelay="0.03" arrival="72.00" arrivalLane="-102015135#2_0" arrivalPos="15.05" arrivalSpeed="20.81" duration="68.00" routeLength="1177.98" waitingTime="2.00" waitingCount="1" stopTime="0.00" timeLoss="17.44" rerouteNo="1" devices="tripinfo_veh18 routing_veh18 emissions_veh18" vType="veh_passenger" speedFactor="0.94" vaporized="">
        <emissions CO_abs="5833.133450" CO2_abs="366043.950802" HC_abs="35.366337" PMx_abs="7.615046" NOx_abs="149.995682" fuel_abs="116750.545020" electricity_abs="0"/>
    </tripinfo>
    <tripinfo id="veh71" depart="16.00" departLane="1032034246#3_0" departPos="5.10" departSpeed="0.00" departDelay="0.33" arrival="81.00" arrivalLane="1124391478_0" arrivalPos="43.79" arrivalSpeed="23.11" duration="65.00" routeLength="701.71" waitingTime="0.00" waitingCount="0" stopTime="0.00" timeLoss="9.36" rerouteNo="1" devices="tripinfo_veh71 routing_veh71 emissions_veh71" vType="veh_passenger" speedFactor="1.02" vaporized="">
        <emissions CO_abs="3217.288323" CO2_abs="221514.020046" HC_abs="19.827528" PMx_abs="3.751032" NOx_abs="88.800747" fuel_abs="70652.928212" electricity_abs="0"/>
    </tripinfo>
    <tripinfo id="veh53" depart="12.00" departLane="27552926#1_0" departPos="5.10" departSpeed="0.00" departDelay="0.30" arrival="82.00" arrivalLane="-1112459426_0" arrivalPos="51.33" arrivalSpeed="13.11" duration="70.00" routeLength="701.74" waitingTime="0.00" waitingCount="0" stopTime="0.00" timeLoss="11.92" rerouteNo="1" devices="tripinfo_veh53 routing_veh53 emissions_veh53" vType="veh_passenger" speedFactor="1.02" vaporized="">
        <emissions CO_abs="3256.926607" CO2_abs="216954.865558" HC_abs="19.865101" PMx_abs="3.585981" NOx_abs="87.200292" fuel_abs="69198.856009" electricity_abs="0"/>
    </tripinfo>
    <tripinfo id="veh11" depart="3.00" departLane="-540134654#1_0" departPos="4.68" departSpeed="0.00" departDelay="0.57" arrival="83.00" arrivalLane="-52152402#10_0" arrivalPos="36.60" arrivalSpeed="20.78" duration="80.00" routeLength="1196.02" waitingTime="0.00" waitingCount="0" stopTime="0.00" timeLoss="27.47" rerouteNo="1" devices="tripinfo_veh11 routing_veh11 emissions_veh11" vType="veh_passenger" speedFactor="1.09" vaporized="">
        <emissions CO_abs="7504.713149" CO2_abs="453388.834647" HC_abs="45.258358" PMx_abs="9.701694" NOx_abs="188.787337" fuel_abs="144609.211140" electricity_abs="0"/>
    </tripinfo>
    <tripinfo id="veh49" depart="11.00" departLane="105741941#4_0" departPos="5.10" departSpeed="0.00" departDelay="0.18" arrival="83.00" arrivalLane="1032034246#1_0" arrivalPos="39.07" arrivalSpeed="8.71" duration="72.00" routeLength="1003.60" waitingTime="0.00" waitingCount="0" stopTime="0.00" timeLoss="18.64" rerouteNo="1" devices="tripinfo_veh49 routing_veh49 emissions_veh49" vType="veh_passenger" speedFactor="0.88" vaporized="">
        <emissions CO_abs="4848.179649" CO2_abs="312529.237207" HC_abs="29.491001" PMx_abs="6.211115" NOx_abs="128.205532" fuel_abs="99681.960200" electricity_abs="0"/>
    </tripinfo>
    <tripinfo id="veh69" depart="16.00" departLane="-1087118364#8_0" departPos="5.10" departSpeed="0.00" departDelay="0.77" arrival="84.00" arrivalLane="239266478#7_0" arrivalPos="105.03" arrivalSpeed="25.30" duration="68.00" routeLength="806.62" waitingTime="0.00" waitingCount="0" stopTime="0.00" timeLoss="10.85" rerouteNo="1" devices="tripinfo_veh69 routing_veh69 emissions_veh69" vType="veh_passenger" speedFactor="0.91" vaporized="">
        <emissions CO_abs="4007.046908" CO2_abs="260855.968358" HC_abs="24.412566" PMx_abs="4.784964" NOx_abs="104.645466" fuel_abs="83201.086176" electricity_abs="0"/>
    </tripinfo>
    <tripinfo id="veh21" depart="5.00" departLane="102945916#4_0" departPos="5.10" departSpeed="0.00" departDelay="0.36" arrival="86.00" arrivalLane="-1130841856#3_0" arrivalPos="33.77" arrivalSpeed="22.28" duration="81.00" routeLength="1162.51" waitingTime="1.00" waitingCount="1" stopTime="0.00" timeLoss="32.01" rerouteNo="1" devices="tripinfo_veh21 routing_veh21 emissions_veh21" vType="veh_passenger" speedFactor="1.02" vaporized="">
        <emissions CO_abs="8051.992235" CO2_abs="487155.677480" HC_abs="48.365457" PMx_abs="10.306580" NOx_abs="204.733664" fuel_abs="155379.090407" electricity_abs="0"/>
    </tripinfo>
    <tripinfo id="veh8" depart="2.00" departLane="-1130841856#1_0" departPos="5.10" departSpeed="0.00" departDelay="0.23" arrival="88.00" arrivalLane="101943131#0_0" arrivalPos="45.63" arrivalSpeed="15.26" duration="86.00" routeLength="1029.13" waitingTime="1.00" waitingCount="1" stopTime="0.00" timeLoss="31.89" rerouteNo="1" devices="tripinfo_veh8 routing_veh8 emissions_veh8" vType="veh_passenger" speedFactor="0.89" vaporized="">
        <emissions CO_abs="7225.340805" CO2_abs="441879.499052" HC_abs="43.402754" PMx_abs="8.888101" NOx_abs="184.917882" fuel_abs="140938.473185" electricity_abs="0"/>
    </tripinfo>
    <tripinfo id="veh81" depart="18.00" departLane="105738779#1_0" departPos="5.10" departSpeed="0.00" departDelay="0.12" arrival="89.00" arrivalLane="-105738792#0_0" arrivalPos="30.54" arrivalSpeed="21.33" duration="71.00" routeLength="798.22" waitingTime="3.00" waitingCount="1" stopTime="0.00" timeLoss="29.21" rerouteNo="1" devices="tripinfo_veh81 routing_veh81 emissions_veh81" vType="veh_passenger" speedFactor="1.01" vaporized="">
        <emissions CO_abs="6893.022484" CO2_abs="377595.462670" HC_abs="40.482456" PMx_abs="7.872051" NOx_abs="161.022057" fuel_abs="120435.020878" electricity_abs="0"/>
    </tripinfo>
    <tripinfo id="veh128" depart="29.00" departLane="27552926#2_0" departPos="5.10" departSpeed="0.00" departDelay="0.75" arrival="95.00" arrivalLane="27552926#12_0" arrivalPos="15.33" arrivalSpeed="10.99" duration="66.00" routeLength="668.75" waitingTime="0.00" waitingCount="0" stopTime="0.00" timeLoss="6.45" rerouteNo="1" devices="tripinfo_veh128 routing_veh128 emissions_veh128" vType="veh_passenger" speedFactor="1.02" vaporized="">
        <emissions CO_abs="2031.166942" CO2_abs="150042.086861" HC_abs="12.672626" PMx_abs="2.054196" NOx_abs="57.347070" fuel_abs="47857.045536" electricity_abs="0"/>
    </tripinfo>
    <tripinfo id="veh234" depart="55.00" departLane="102018257#0_0" departPos="5.10" departSpeed="0.00" departDelay="3.35" arrival="96.00" arrivalLane="52085865#30_0" arrivalPos="68.89" arrivalSpeed="9.92" duration="41.00" routeLength="479.88" waitingTime="0.00" waitingCount="0" stopTime="0.00" timeLoss="12.59" rerouteNo="1" devices="tripinfo_veh234 routing_veh234 emissions_veh234" vType="veh_passenger" speedFactor="0.97" vaporized="">
        <emissions CO_abs="2543.269485" CO2_abs="163914.734008" HC_abs="15.469220" PMx_abs="3.033577" NOx_abs="66.870461" fuel_abs="52281.207337" electricity_abs="0"/>
    </tripinfo>
    <tripinfo id="veh65" depart="15.00" departLane="102192909#6_0" departPos="5.10" departSpeed="0.00" departDelay="0.65" arrival="99.00" arrivalLane="102945909#12_0" arrivalPos="6.09" arrivalSpeed="21.84" duration="84.00" routeLength="1230.65" waitingTime="0.00" waitingCount="0" stopTime="0.00" timeLoss="28.01" rerouteNo="1" devices="tripinfo_veh65 routing_veh65 emissions_veh65" vType="veh_passenger" speedFactor="0.99" vaporized="">
        <emissions CO_abs="7919.854357" CO2_abs="509933.755683" HC_abs="48.248194" PMx_abs="10.675125" NOx_abs="215.070403" fuel_abs="162643.886301" electricity_abs="0"/>
    </tripinfo>
    <tripinfo id="veh158" depart="35.00" departLane="239266478#1_0" departPos="5.10" departSpeed="0.00" departDelay="0.13" arrival="100.00" arrivalLane="563179860#3_1" arrivalPos="42.78" arrivalSpeed="10.72" duration="65.00" routeLength="974.23" waitingTime="5.00" waitingCount="1" stopTime="0.00" timeLoss="20.85" rerouteNo="1" devices="tripinfo_veh158 routing_veh158 emissions_veh158" vType="veh_passenger" speedFactor="1.07" vaporized="">
        <emissions CO_abs="6126.730890" CO2_abs="328285.403811" HC_abs="35.906071" PMx_abs="6.997301" NOx_abs="135.630850" fuel_abs="104707.779530" electricity_abs="0"/>
    </tripinfo>
    <tripinfo id="veh240" depart="57.00" departLane="102015151#7_0" departPos="5.10" departSpeed="0.00" departDelay="4.03" arrival="100.00" arrivalLane="1124394722#12_1" arrivalPos="41.16" arrivalSpeed="30.95" duration="43.00" routeLength="648.21" waitingTime="0.00" waitingCount="0" stopTime="0.00" timeLoss="17.74" rerouteNo="1" devices="tripinfo_veh240 routing_veh240 emissions_veh240" vType="veh_passenger" speedFactor="1.14" vaporized="">
        <emissions CO_abs="5893.466614" CO2_abs="346074.092419" HC_abs="35.316877" PMx_abs="7.667552" NOx_abs="147.536898" fuel_abs="110380.647718" electricity_abs="0"/>
    </tripinfo>
    <tripinfo id="veh196" depart="44.00" departLane="-102023543#5_0" departPos="5.10" departSpeed="0.00" departDelay="0.74" arrival="102.00" arrivalLane="103594716#25_0" arrivalPos="73.90" arrivalSpeed="7.98" duration="58.00" routeLength="820.03" waitingTime="6.00" waitingCount="1" stopTime="0.00" timeLoss="22.19" rerouteNo="1" devices="tripinfo_veh196 routing_veh196 emissions_veh196" vType="veh_passenger" speedFactor="0.89" vaporized="">
        <emissions CO_abs="5230.431409" CO2_abs="279106.170221" HC_abs="30.532238" PMx_abs="5.926535" NOx_abs="117.423116" fuel_abs="89021.746771" electricity_abs="0"/>
    </tripinfo>
    <tripinfo id="veh139" depart="33.00" departLane="-105258720#1_0" departPos="5.10" departSpeed="0.00" departDelay="2.32" arrival="104.00" arrivalLane="-1124391474#0_1" arrivalPos="17.27" arrivalSpeed="13.27" duration="71.00" routeLength="1098.10" waitingTime="0.00" waitingCount="0" stopTime="0.00" timeLoss="17.39" rerouteNo="1" devices="tripinfo_veh139 routing_veh139 emissions_veh139" vType="veh_passenger" speedFactor="1.23" vaporized="">
        <emissions CO_abs="4826.565067" CO2_abs="337573.307010" HC_abs="30.046565" PMx_abs="6.639120" NOx_abs="136.087682" fuel_abs="107669.848249" electricity_abs="0"/>
    </tripinfo>
    <tripinfo id="veh33" depart="8.00" departLane="104777725#9_0" departPos="5.10" departSpeed="0.00" departDelay="0.72" arrival="109.00" arrivalLane="52152395#1_0" arrivalPos="24.04" arrivalSpeed="17.97" duration="101.00" routeLength="1559.24" waitingTime="0.00" waitingCount="0" stopTime="0.00" timeLoss="30.04" rerouteNo="1" devices="tripinfo_veh33 routing_veh33 emissions_veh33" vType="veh_passenger" speedFactor="1.01" vaporized="">
        <emissions CO_abs="8984.764289" CO2_abs="589476.868802" HC_abs="55.154824" PMx_abs="12.321188" NOx_abs="245.480034" fuel_abs="188014.405703" electricity_abs="0"/>
    </tripinfo>
    <tripinfo id="veh60" depart="14.00" departLane="101750899#1_0" departPos="5.10" departSpeed="0.00" departDelay="0.76" arrival="109.00" arrivalLane="-52152279#3_0" arrivalPos="32.26" arrivalSpeed="27.38" duration="95.00" routeLength="1291.86" waitingTime="0.00" waitingCount="0" stopTime="0.00" timeLoss="22.77" rerouteNo="1" devices="tripinfo_veh60 routing_veh60 emissions_veh60" vType="veh_passenger" speedFactor="1.02" vaporized="">
        <emissions CO_abs="7052.277985" CO2_abs="474233.781956" HC_abs="43.394743" PMx_abs="9.429312" NOx_abs="196.653482" fuel_abs="151257.701794" electricity_abs="0"/>
    </tripinfo>
    <tripinfo id="veh122" depart="27.00" departLane="105738792#4_0" departPos="5.10" departSpeed="0.00" departDelay="0.07" arrival="109.00" arrivalLane="-113752008#3_0" arrivalPos="15.83" arrivalSpeed="13.26" duration="82.00" routeLength="1110.70" waitingTime="0.00" waitingCount="0" stopTime="0.00" timeLoss="25.63" rerouteNo="1" devices="tripinfo_veh122 routing_veh122 emissions_veh122" vType="veh_passenger" speedFactor="0.99" vaporized="">
        <emissions CO_abs="6831.130871" CO2_abs="431951.673399" HC_abs="41.421833" PMx_abs="8.758748" NOx_abs="180.069419" fuel_abs="137771.833747" electricity_abs="0"/>
    </tripinfo>
    <tripinfo id="veh133" depart="30.00" departLane="-113382310_0" departPos="5.10" departSpeed="0.00" departDelay="0.64" arrival="109.00" arrivalLane="-113752008#0_0" arrivalPos="55.01" arrivalSpeed="14.74" duration="79.00" routeLength="1436.63" waitingTime="0.00" waitingCount="0" stopTime="0.00" timeLoss="23.04" rerouteNo="1" devices="tripinfo_veh133 routing_veh133 emissions_veh133" vType="veh_passenger" speedFactor="1.12" vaporized="">
        <emissions CO_abs="7161.312825" CO2_abs="458836.594388" HC_abs="43.879785" PMx_abs="9.916511" NOx_abs="190.236506" fuel_abs="146346.509674" electricity_abs="0"/>
    </tripinfo>
    <tripinfo id="veh100" depart="23.00" departLane="1029381531#9_0" departPos="5.10" departSpeed="0.00" departDelay="0.93" arrival="110.00" arrivalLane="-105258720#5_0" arrivalPos="16.89" arrivalSpeed="27.38" duration="87.00" routeLength="846.35" waitingTime="9.00" waitingCount="1" stopTime="0.00" timeLoss="29.58" rerouteNo="1" devices="tripinfo_veh100 routing_veh100 emissions_veh100" vType="veh_passenger" speedFactor="1.01" vaporized="">
        <emissions CO_abs="7097.099157" CO2_abs="367566.199313" HC_abs="40.981033" PMx_abs="7.212133" NOx_abs="153.854664" fuel_abs="117236.898500" electricity_abs="0"/>
    </tripinfo>
    <tripinfo id="bus4" depart="6.00" departLane="-101943160#8_0" departPos="12.10" departSpeed="0.00" departDelay="0.11" arrival="111.00" arrivalLane="101994129#8_0" arrivalPos="29.11" arrivalSpeed="21.20" duration="105.00" routeLength="1570.02" waitingTime="0.00" waitingCount="0" stopTime="0.00" timeLoss="41.77" rerouteNo="1" devices="tripinfo_bus4 routing_bus4 emissions_bus4" vType="bus_bus" speedFactor="1.00" vaporized="">
        <emissions CO_abs="4388.598032" CO2_abs="3296865.587230" HC_abs="786.869129" PMx_abs="476.035458" NOx_abs="24229.179007" fuel_abs="1043361.922058" electricity_abs="0"/>
    </tripinfo>
    <tripinfo id="veh352" depart="78.00" departLane="102945916#1_0" departPos="5.10" departSpeed="0.00" departDelay="0.31" arrival="111.00" arrivalLane="102192909#16_0" arrivalPos="28.38" arrivalSpeed="11.75" duration="33.00" routeLength="409.30" waitingTime="0.00" waitingCount="0" stopTime="0.00" timeLoss="14.31" rerouteNo="1" devices="tripinfo_veh352 routing_veh352 emissions_veh352" vType="veh_passenger" speedFactor="1.11" vaporized="">
        <emissions CO_abs="3275.070298" CO2_abs="199774.858117" HC_abs="19.729452" PMx_abs="4.139623" NOx_abs="85.163205" fuel_abs="63718.474753" electricity_abs="0"/>
    </tripinfo>
    <tripinfo id="veh215" depart="48.00" departLane="-103021791#4_0" departPos="5.10" departSpeed="0.00" departDelay="0.55" arrival="113.00" arrivalLane="102015151#3_0" arrivalPos="1.56" arrivalSpeed="21.24" duration="65.00" routeLength="950.52" waitingTime="0.00" waitingCount="0" stopTime="0.00" timeLoss="24.99" rerouteNo="1" devices="tripinfo_veh215 routing_veh215 emissions_veh215" vType="veh_passenger" speedFactor="1.00" vaporized="">
        <emissions CO_abs="5906.965589" CO2_abs="378556.602530" HC_abs="35.946329" PMx_abs="7.884781" NOx_abs="159.321152" fuel_abs="120741.075456" electricity_abs="0"/>
    </tripinfo>
    <tripinfo id="veh270" depart="60.00" departLane="1124379127#10_0" departPos="5.10" departSpeed="0.00" departDelay="0.41" arrival="113.00" arrivalLane="-102192907#2_0" arrivalPos="3.76" arrivalSpeed="9.72" duration="53.00" routeLength="560.90" waitingTime="0.00" waitingCount="0" stopTime="0.00" timeLoss="9.84" rerouteNo="1" devices="tripinfo_veh270 routing_veh270 emissions_veh270" vType="veh_passenger" speedFactor="0.75" vaporized="">
        <emissions CO_abs="2839.290356" CO2_abs="179586.896713" HC_abs="17.126173" PMx_abs="3.196325" NOx_abs="73.036676" fuel_abs="57280.012892" electricity_abs="0"/>
    </tripinfo>
    <tripinfo id="bus31" depart="46.00" departLane="-103010038#9_0" departPos="12.10" departSpeed="0.00" departDelay="0.38" arrival="114.00" arrivalLane="-105258720#3_0" arrivalPos="24.03" arrivalSpeed="25.98" duration="68.00" routeLength="859.10" waitingTime="0.00" waitingCount="0" stopTime="0.00" timeLoss="17.73" rerouteNo="1" devices="tripinfo_bus31 routing_bus31 emissions_bus31" vType="bus_bus" speedFactor="1.00" vaporized="">
        <emissions CO_abs="2340.201078" CO2_abs="1613117.141633" HC_abs="461.000883" PMx_abs="252.672368" NOx_abs="12147.877973" fuel_abs="510496.566065" electricity_abs="0"/>
    </tripinfo>
    <tripinfo id="veh43" depart="10.00" departLane="-102961698#7_0" departPos="5.10" departSpeed="0.00" departDelay="0.51" arrival="114.00" arrivalLane="1124394722#0_0" arrivalPos="38.78" arrivalSpeed="16.11" duration="104.00" routeLength="2015.62" waitingTime="0.00" waitingCount="0" stopTime="0.00" timeLoss="24.18" rerouteNo="1" devices="tripinfo_veh43 routing_veh43 emissions_veh43" vType="veh_passenger" speedFactor="1.09" vaporized="">
        <emissions CO_abs="9019.724674" CO2_abs="574950.035552" HC_abs="55.092525" PMx_abs="12.343290" NOx_abs="230.920256" fuel_abs="183381.642033" electricity_abs="0"/>
    </tripinfo>
    <tripinfo id="veh113" depart="25.00" departLane="102192909#13_0" departPos="5.10" departSpeed="0.00" departDelay="0.06" arrival="114.00" arrivalLane="-104227901#1_0" arrivalPos="37.40" arrivalSpeed="13.91" duration="89.00" routeLength="1296.07" waitingTime="0.00" waitingCount="0" stopTime="0.00" timeLoss="30.84" rerouteNo="1" devices="tripinfo_veh113 routing_veh113 emissions_veh113" vType="veh_passenger" speedFactor="0.96" vaporized="">
        <emissions CO_abs="8024.837487" CO2_abs="506143.838662" HC_abs="48.709149" PMx_abs="10.598669" NOx_abs="213.408256" fuel_abs="161435.202324" electricity_abs="0"/>
    </tripinfo>
    <tripinfo id="veh63" depart="14.00" departLane="113752026#1_0" departPos="5.10" departSpeed="0.00" departDelay="0.09" arrival="115.00" arrivalLane="102023536#9_0" arrivalPos="13.20" arrivalSpeed="10.19" duration="101.00" routeLength="1555.42" waitingTime="0.00" waitingCount="0" stopTime="0.00" timeLoss="28.95" rerouteNo="1" devices="tripinfo_veh63 routing_veh63 emissions_veh63" vType="veh_passenger" speedFactor="1.12" vaporized="">
        <emissions CO_abs="8846.915084" CO2_abs="567329.550886" HC_abs="53.940595" PMx_abs="11.759249" NOx_abs="235.276893" fuel_abs="180950.753408" electricity_abs="0"/>
    </tripinfo>
    <tripinfo id="veh70" depart="16.00" departLane="102023536#11_0" departPos="5.10" departSpeed="0.00" departDelay="0.55" arrival="115.00" arrivalLane="105258720#11_0" arrivalPos="45.69" arrivalSpeed="15.32" duration="99.00" routeLength="978.37" waitingTime="0.00" waitingCount="0" stopTime="0.00" timeLoss="27.38" rerouteNo="1" devices="tripinfo_veh70 routing_veh70 emissions_veh70" vType="veh_passenger" speedFactor="1.04" vaporized="">
        <emissions CO_abs="4672.899642" CO2_abs="298539.120882" HC_abs="28.100830" PMx_abs="5.008308" NOx_abs="120.368071" fuel_abs="95220.601835" electricity_abs="0"/>
    </tripinfo>
    <tripinfo id="veh77" depart="17.00" departLane="-105605195_1" departPos="5.10" departSpeed="0.00" departDelay="0.00" arrival="115.00" arrivalLane="-105578115#1_0" arrivalPos="18.12" arrivalSpeed="12.50" duration="98.00" routeLength="1722.57" waitingTime="0.00" waitingCount="0" stopTime="0.00" timeLoss="15.43" rerouteNo="1" devices="tripinfo_veh77 routing_veh77 emissions_veh77" vType="veh_passenger" speedFactor="0.96" vaporized="">
        <emissions CO_abs="5470.601804" CO2_abs="422405.203634" HC_abs="34.771767" PMx_abs="8.069929" NOx_abs="163.034016" fuel_abs="134727.449581" electricity_abs="0"/>
    </tripinfo>
    <tripinfo id="veh184" depart="41.00" departLane="1124391489#1_0" departPos="5.10" departSpeed="0.00" departDelay="0.39" arrival="115.00" arrivalLane="-105738793#2_0" arrivalPos="33.16" arrivalSpeed="13.31" duration="74.00" routeLength="713.47" waitingTime="0.00" waitingCount="0" stopTime="0.00" timeLoss="21.10" rerouteNo="1" devices="tripinfo_veh184 routing_veh184 emissions_veh184" vType="veh_passenger" speedFactor="1.03" vaporized="">
        <emissions CO_abs="4629.862680" CO2_abs="274519.026330" HC_abs="27.458036" PMx_abs="5.021921" NOx_abs="113.266817" fuel_abs="87559.012561" electricity_abs="0"/>
    </tripinfo>
    <tripinfo id="veh216" depart="48.00" departLane="-105741927#7_0" departPos="5.10" departSpeed="0.00" departDelay="0.32" arrival="117.00" arrivalLane="116237632#19_0" arrivalPos="37.07" arrivalSpeed="16.07" duration="69.00" routeLength="759.70" waitingTime="0.00" waitingCount="0" stopTime="0.00" timeLoss="18.19" rerouteNo="1" devices="tripinfo_veh216 routing_veh216 emissions_veh216" vType="veh_passenger" speedFactor="0.97" vaporized="">
        <emissions CO_abs="4297.374964" CO2_abs="279524.397206" HC_abs="26.090088" PMx_abs="5.196083" NOx_abs="115.449049" fuel_abs="89155.174407" electricity_abs="0"/>
    </tripinfo>
    <tripinfo id="veh80" depart="18.00" departLane="116237632#5_0" departPos="5.10" departSpeed="0.00" departDelay="0.34" arrival="118.00" arrivalLane="102023600#8_0" arrivalPos="16.71" arrivalSpeed="10.60" duration="100.00" routeLength="1444.14" waitingTime="0.00" waitingCount="0" stopTime="0.00" timeLoss="21.04" rerouteNo="1" devices="tripinfo_veh80 routing_veh80 emissions_veh80" vType="veh_passenger" speedFactor="0.98" vaporized="">
        <emissions CO_abs="6981.476459" CO2_abs="473207.101442" HC_abs="43.146860" PMx_abs="9.545982" NOx_abs="195.055411" fuel_abs="150930.224786" electricity_abs="0"/>
    </tripinfo>
    <tripinfo id="veh165" depart="39.00" departLane="1102881626#0_0" departPos="5.10" departSpeed="0.00" departDelay="2.58" arrival="119.00" arrivalLane="1166212048_0" arrivalPos="136.32" arrivalSpeed="24.43" duration="80.00" routeLength="1814.07" waitingTime="0.00" waitingCount="0" stopTime="0.00" timeLoss="22.80" rerouteNo="1" devices="tripinfo_veh165 routing_veh165 emissions_veh165" vType="veh_passenger" speedFactor="1.14" vaporized="">
        <emissions CO_abs="11059.293677" CO2_abs="673752.993208" HC_abs="67.166184" PMx_abs="15.417853" NOx_abs="277.872558" fuel_abs="214894.281949" electricity_abs="0"/>
    </tripinfo>
    <tripinfo id="veh187" depart="42.00" departLane="-115654046#6_0" departPos="5.10" departSpeed="0.00" departDelay="0.73" arrival="121.00" arrivalLane="116237632#18_0" arrivalPos="251.77" arrivalSpeed="7.85" duration="79.00" routeLength="592.36" waitingTime="8.00" waitingCount="2" stopTime="0.00" timeLoss="51.17" rerouteNo="1" devices="tripinfo_veh187 routing_veh187 emissions_veh187" vType="veh_passenger" speedFactor="1.06" vaporized="">
        <emissions CO_abs="8802.867534" CO2_abs="343188.159312" HC_abs="48.350536" PMx_abs="7.535777" NOx_abs="148.514153" fuel_abs="109461.927477" electricity_abs="0"/>
    </tripinfo>
    <tripinfo id="veh25" depart="6.00" departLane="-105578139#0_0" departPos="5.10" departSpeed="0.00" departDelay="0.48" arrival="122.00" arrivalLane="-104227921#0_0" arrivalPos="97.37" arrivalSpeed="10.79" duration="116.00" routeLength="964.92" waitingTime="3.00" waitingCount="1" stopTime="0.00" timeLoss="17.64" rerouteNo="1" devices="tripinfo_veh25 routing_veh25 emissions_veh25" vType="veh_passenger" speedFactor="0.83" vaporized="">
        <emissions CO_abs="5058.483483" CO2_abs="271406.163090" HC_abs="29.210233" PMx_abs="4.011034" NOx_abs="106.614912" fuel_abs="86567.499051" electricity_abs="0"/>
    </tripinfo>
    <tripinfo id="veh104" depart="25.00" departLane="102192909#7_0" departPos="5.10" departSpeed="0.00" departDelay="2.05" arrival="122.00" arrivalLane="102023543#3_0" arrivalPos="27.18" arrivalSpeed="22.91" duration="97.00" routeLength="1647.53" waitingTime="0.00" waitingCount="0" stopTime="0.00" timeLoss="34.30" rerouteNo="1" devices="tripinfo_veh104 routing_veh104 emissions_veh104" vType="veh_passenger" speedFactor="1.06" vaporized="">
        <emissions CO_abs="10542.955773" CO2_abs="663270.277471" HC_abs="64.231430" PMx_abs="14.444762" NOx_abs="278.111147" fuel_abs="211550.694345" electricity_abs="0"/>
    </tripinfo>
    <tripinfo id="veh42" depart="10.00" departLane="-102825250#1_0" departPos="5.10" departSpeed="0.00" departDelay="0.73" arrival="123.00" arrivalLane="-102015135#6_0" arrivalPos="49.99" arrivalSpeed="20.92" duration="113.00" routeLength="1021.00" waitingTime="31.00" waitingCount="1" stopTime="0.00" timeLoss="65.71" rerouteNo="1" devices="tripinfo_veh42 routing_veh42 emissions_veh42" vType="veh_passenger" speedFactor="0.96" vaporized="">
        <emissions CO_abs="12514.629217" CO2_abs="535924.422830" HC_abs="69.770845" PMx_abs="11.335474" NOx_abs="228.966503" fuel_abs="170935.993084" electricity_abs="0"/>
    </tripinfo>
    <tripinfo id="veh55" depart="13.00" departLane="52085865#48_0" departPos="5.10" departSpeed="0.00" departDelay="0.86" arrival="124.00" arrivalLane="239266478#4_1" arrivalPos="31.84" arrivalSpeed="27.45" duration="111.00" routeLength="1970.71" waitingTime="0.00" waitingCount="0" stopTime="0.00" timeLoss="16.25" rerouteNo="1" devices="tripinfo_veh55 routing_veh55 emissions_veh55" vType="veh_passenger" speedFactor="1.00" vaporized="">
        <emissions CO_abs="7686.433023" CO2_abs="547350.696249" HC_abs="47.986902" PMx_abs="10.947251" NOx_abs="215.647712" fuel_abs="174578.980278" electricity_abs="0"/>
    </tripinfo>
    <tripinfo id="bus16" depart="24.00" departLane="-102945916#0_0" departPos="12.10" departSpeed="0.00" departDelay="0.46" arrival="125.00" arrivalLane="-562730848#2_0" arrivalPos="45.71" arrivalSpeed="21.88" duration="101.00" routeLength="1213.92" waitingTime="0.00" waitingCount="0" stopTime="0.00" timeLoss="41.90" rerouteNo="1" devices="tripinfo_bus16 routing_bus16 emissions_bus16" vType="bus_bus" speedFactor="1.00" vaporized="">
        <emissions CO_abs="3847.387408" CO2_abs="2730537.748459" HC_abs="709.850847" PMx_abs="414.390708" NOx_abs="20421.730531" fuel_abs="864106.723361" electricity_abs="0"/>
    </tripinfo>
    <tripinfo id="veh279" depart="63.00" departLane="1102881626#0_0" departPos="5.10" departSpeed="0.00" departDelay="1.42" arrival="125.00" arrivalLane="-540139649#1_0" arrivalPos="19.02" arrivalSpeed="10.42" duration="62.00" routeLength="1034.31" waitingTime="0.00" waitingCount="0" stopTime="0.00" timeLoss="18.98" rerouteNo="1" devices="tripinfo_veh279 routing_veh279 emissions_veh279" vType="veh_passenger" speedFactor="0.96" vaporized="">
        <emissions CO_abs="5336.779870" CO2_abs="365539.215735" HC_abs="33.048319" PMx_abs="7.586490" NOx_abs="150.838325" fuel_abs="116589.169628" electricity_abs="0"/>
    </tripinfo>