<?xml version="1.0" encoding="UTF-8"?>

<!-- generated on 2023-05-02 13:05:47 by Eclipse SUMO GUI Version 1.15.0
<configuration xmlns:xsi="http://www.w3.org/2001/XMLSchema-instance" xsi:noNamespaceSchemaLocation="http://sumo.dlr.de/xsd/sumoConfiguration.xsd">

    <input>
        <net-file value="C:\Users\dell\Sumo\b11 c180\osm.net.xml.gz"/>
        <route-files value="C:\Users\dell\Sumo\b11 c180\osm_pt.rou.xml,C:\Users\dell\Sumo\b11 c180\osm.bus.trips.xml,C:\Users\dell\Sumo\b11 c180\osm.passenger.trips.xml"/>
        <additional-files value="C:\Users\dell\Sumo\b11 c180\osm.poly.xml.gz,C:\Users\dell\Sumo\b11 c180\osm_stops.add.xml"/>
    </input>

    <output>
        <emission-output value="C:\Users\dell\Sumo\b11 c180\emissions_c180_b11.xml"/>
        <tripinfo-output value="C:\Users\dell\Sumo\b11 c180\tripinfo_c180_b11.xml"/>
    </output>

    <time>
        <begin value="0"/>
        <end value="600"/>
    </time>

    <processing>
        <ignore-route-errors value="true"/>
    </processing>

    <routing>
        <device.rerouting.adaptation-steps value="18"/>
        <device.rerouting.adaptation-interval value="10"/>
    </routing>

    <report>
        <verbose value="true"/>
        <duration-log.statistics value="true"/>
        <no-step-log value="true"/>
    </report>

    <gui_only>
        <gui-settings-file value="C:\Users\dell\Sumo\b11 c180\osm.view.xml"/>
    </gui_only>

</configuration>
-->

<tripinfos xmlns:xsi="http://www.w3.org/2001/XMLSchema-instance" xsi:noNamespaceSchemaLocation="http://sumo.dlr.de/xsd/tripinfo_file.xsd">
    <tripinfo id="veh38" depart="5.00" departLane="103477632#4_0" departPos="5.10" departSpeed="0.00" departDelay="0.34" arrival="50.00" arrivalLane="-1111799487#2_0" arrivalPos="38.09" arrivalSpeed="20.30" duration="45.00" routeLength="555.58" waitingTime="0.00" waitingCount="0" stopTime="0.00" timeLoss="22.10" rerouteNo="1" devices="tripinfo_veh38 routing_veh38 emissions_veh38" vType="veh_passenger" speedFactor="1.18" vaporized="">
        <emissions CO_abs="4901.163802" CO2_abs="297031.338898" HC_abs="29.501561" PMx_abs="6.279525" NOx_abs="127.438928" fuel_abs="94738.445477" electricity_abs="0"/>
    </tripinfo>
    <tripinfo id="veh9" depart="2.00" departLane="1130603776_0" departPos="5.10" departSpeed="26.05" departDelay="0.90" arrival="55.00" arrivalLane="1102881626#0_0" arrivalPos="35.16" arrivalSpeed="25.36" duration="53.00" routeLength="1254.20" waitingTime="0.00" waitingCount="0" stopTime="0.00" timeLoss="4.13" rerouteNo="1" devices="tripinfo_veh9 routing_veh9 emissions_veh9" vType="veh_passenger" speedFactor="0.94" vaporized="">
        <emissions CO_abs="3724.467565" CO2_abs="302087.040034" HC_abs="24.061270" PMx_abs="6.281019" NOx_abs="117.894434" fuel_abs="96351.046622" electricity_abs="0"/>
    </tripinfo>
    <tripinfo id="veh26" depart="4.00" departLane="103594716#6_0" departPos="5.10" departSpeed="0.00" departDelay="0.81" arrival="65.00" arrivalLane="1124391477_0" arrivalPos="52.67" arrivalSpeed="14.98" duration="61.00" routeLength="1063.52" waitingTime="0.00" waitingCount="0" stopTime="0.00" timeLoss="14.53" rerouteNo="1" devices="tripinfo_veh26 routing_veh26 emissions_veh26" vType="veh_passenger" speedFactor="0.87" vaporized="">
        <emissions CO_abs="4270.600062" CO2_abs="302461.983621" HC_abs="26.567275" PMx_abs="6.016975" NOx_abs="120.939358" fuel_abs="96470.938164" electricity_abs="0"/>
    </tripinfo>
    <tripinfo id="veh18" depart="3.00" departLane="1102881626#2_0" departPos="5.10" departSpeed="0.00" departDelay="0.79" arrival="71.00" arrivalLane="-102015135#2_0" arrivalPos="15.05" arrivalSpeed="20.46" duration="68.00" routeLength="1177.98" waitingTime="3.00" waitingCount="1" stopTime="0.00" timeLoss="16.94" rerouteNo="1" devices="tripinfo_veh18 routing_veh18 emissions_veh18" vType="veh_passenger" speedFactor="0.94" vaporized="">
        <emissions CO_abs="5300.418982" CO2_abs="356441.965172" HC_abs="32.431456" PMx_abs="7.114684" NOx_abs="142.151379" fuel_abs="113688.132668" electricity_abs="0"/>
    </tripinfo>
    <tripinfo id="veh187" depart="23.00" departLane="-115654046#6_0" departPos="5.10" departSpeed="0.00" departDelay="0.07" arrival="72.00" arrivalLane="116237632#18_0" arrivalPos="251.77" arrivalSpeed="7.31" duration="49.00" routeLength="592.36" waitingTime="2.00" waitingCount="1" stopTime="0.00" timeLoss="22.35" rerouteNo="1" devices="tripinfo_veh187 routing_veh187 emissions_veh187" vType="veh_passenger" speedFactor="1.06" vaporized="">
        <emissions CO_abs="5303.948424" CO2_abs="272073.219609" HC_abs="30.765958" PMx_abs="5.947661" NOx_abs="116.598276" fuel_abs="86778.431449" electricity_abs="0"/>
    </tripinfo>
    <tripinfo id="veh71" depart="9.00" departLane="1032034246#3_0" departPos="5.10" departSpeed="0.00" departDelay="0.29" arrival="73.00" arrivalLane="1124391478_0" arrivalPos="43.79" arrivalSpeed="22.21" duration="64.00" routeLength="701.71" waitingTime="0.00" waitingCount="0" stopTime="0.00" timeLoss="8.52" rerouteNo="1" devices="tripinfo_veh71 routing_veh71 emissions_veh71" vType="veh_passenger" speedFactor="1.02" vaporized="">
        <emissions CO_abs="2804.309804" CO2_abs="204583.636665" HC_abs="17.562602" PMx_abs="3.413180" NOx_abs="81.650923" fuel_abs="65252.846457" electricity_abs="0"/>
    </tripinfo>
    <tripinfo id="veh81" depart="10.00" departLane="105738779#1_0" departPos="5.10" departSpeed="0.00" departDelay="0.07" arrival="73.00" arrivalLane="-105738792#0_0" arrivalPos="30.54" arrivalSpeed="20.46" duration="63.00" routeLength="798.22" waitingTime="0.00" waitingCount="0" stopTime="0.00" timeLoss="21.20" rerouteNo="1" devices="tripinfo_veh81 routing_veh81 emissions_veh81" vType="veh_passenger" speedFactor="1.01" vaporized="">
        <emissions CO_abs="5425.523877" CO2_abs="344150.594910" HC_abs="32.990386" PMx_abs="7.009213" NOx_abs="145.590924" fuel_abs="109767.347608" electricity_abs="0"/>
    </tripinfo>
    <tripinfo id="veh21" depart="3.00" departLane="102945916#4_0" departPos="5.10" departSpeed="0.00" departDelay="0.42" arrival="78.00" arrivalLane="-1130841856#3_0" arrivalPos="33.77" arrivalSpeed="21.38" duration="75.00" routeLength="1162.51" waitingTime="0.00" waitingCount="0" stopTime="0.00" timeLoss="26.11" rerouteNo="1" devices="tripinfo_veh21 routing_veh21 emissions_veh21" vType="veh_passenger" speedFactor="1.02" vaporized="">
        <emissions CO_abs="7496.763549" CO2_abs="477705.389421" HC_abs="45.704798" PMx_abs="10.213414" NOx_abs="202.048275" fuel_abs="152364.495428" electricity_abs="0"/>
    </tripinfo>
    <tripinfo id="veh158" depart="20.00" departLane="239266478#1_0" departPos="5.10" departSpeed="0.00" departDelay="0.63" arrival="78.00" arrivalLane="563179860#3_1" arrivalPos="42.78" arrivalSpeed="11.22" duration="58.00" routeLength="974.23" waitingTime="0.00" waitingCount="0" stopTime="0.00" timeLoss="13.41" rerouteNo="1" devices="tripinfo_veh158 routing_veh158 emissions_veh158" vType="veh_passenger" speedFactor="1.07" vaporized="">
        <emissions CO_abs="5004.797734" CO2_abs="315517.382221" HC_abs="30.539384" PMx_abs="6.637257" NOx_abs="127.277215" fuel_abs="100635.106545" electricity_abs="0"/>
    </tripinfo>
    <tripinfo id="veh234" depart="32.00" departLane="102018257#0_0" departPos="5.10" departSpeed="0.00" departDelay="3.31" arrival="78.00" arrivalLane="52085865#30_0" arrivalPos="68.89" arrivalSpeed="10.64" duration="46.00" routeLength="479.88" waitingTime="2.00" waitingCount="1" stopTime="0.00" timeLoss="16.81" rerouteNo="1" devices="tripinfo_veh234 routing_veh234 emissions_veh234" vType="veh_passenger" speedFactor="0.97" vaporized="">
        <emissions CO_abs="3502.066570" CO2_abs="189720.261298" HC_abs="20.368551" PMx_abs="3.625605" NOx_abs="78.287284" fuel_abs="60512.162543" electricity_abs="0"/>
    </tripinfo>
    <tripinfo id="veh53" depart="7.00" departLane="27552926#1_0" departPos="5.10" departSpeed="0.00" departDelay="0.50" arrival="79.00" arrivalLane="-1112459426_0" arrivalPos="51.33" arrivalSpeed="13.90" duration="72.00" routeLength="701.74" waitingTime="0.00" waitingCount="0" stopTime="0.00" timeLoss="13.92" rerouteNo="1" devices="tripinfo_veh53 routing_veh53 emissions_veh53" vType="veh_passenger" speedFactor="1.02" vaporized="">
        <emissions CO_abs="3735.031607" CO2_abs="230205.708003" HC_abs="22.277466" PMx_abs="3.836279" NOx_abs="92.491409" fuel_abs="73425.438636" electricity_abs="0"/>
    </tripinfo>
    <tripinfo id="veh128" depart="16.00" departLane="27552926#2_1" departPos="5.10" departSpeed="0.00" departDelay="0.30" arrival="82.00" arrivalLane="27552926#12_0" arrivalPos="15.33" arrivalSpeed="10.29" duration="66.00" routeLength="668.75" waitingTime="0.00" waitingCount="0" stopTime="0.00" timeLoss="6.39" rerouteNo="1" devices="tripinfo_veh128 routing_veh128 emissions_veh128" vType="veh_passenger" speedFactor="1.02" vaporized="">
        <emissions CO_abs="1941.956807" CO2_abs="154368.266682" HC_abs="12.336933" PMx_abs="1.939782" NOx_abs="57.768881" fuel_abs="49237.026348" electricity_abs="0"/>
    </tripinfo>
    <tripinfo id="veh352" depart="44.00" departLane="102945916#1_0" departPos="5.10" departSpeed="0.00" departDelay="0.84" arrival="82.00" arrivalLane="102192909#16_0" arrivalPos="28.38" arrivalSpeed="13.27" duration="38.00" routeLength="409.30" waitingTime="1.00" waitingCount="1" stopTime="0.00" timeLoss="18.95" rerouteNo="1" devices="tripinfo_veh352 routing_veh352 emissions_veh352" vType="veh_passenger" speedFactor="1.11" vaporized="">
        <emissions CO_abs="4058.680821" CO2_abs="215275.865464" HC_abs="23.676460" PMx_abs="4.601766" NOx_abs="93.070644" fuel_abs="68662.689404" electricity_abs="0"/>
    </tripinfo>
    <tripinfo id="veh69" depart="9.00" departLane="-1087118364#8_0" departPos="5.10" departSpeed="0.00" departDelay="0.54" arrival="87.00" arrivalLane="239266478#7_0" arrivalPos="105.03" arrivalSpeed="20.61" duration="78.00" routeLength="806.62" waitingTime="6.00" waitingCount="1" stopTime="0.00" timeLoss="21.61" rerouteNo="1" devices="tripinfo_veh69 routing_veh69 emissions_veh69" vType="veh_passenger" speedFactor="0.91" vaporized="">
        <emissions CO_abs="5159.909779" CO2_abs="276529.364054" HC_abs="29.941183" PMx_abs="5.117068" NOx_abs="113.307334" fuel_abs="88200.551007" electricity_abs="0"/>
    </tripinfo>
    <tripinfo id="veh215" depart="27.00" departLane="-103021791#4_0" departPos="5.10" departSpeed="0.00" departDelay="0.64" arrival="87.00" arrivalLane="102015151#3_0" arrivalPos="1.56" arrivalSpeed="20.73" duration="60.00" routeLength="950.52" waitingTime="0.00" waitingCount="0" stopTime="0.00" timeLoss="19.89" rerouteNo="1" devices="tripinfo_veh215 routing_veh215 emissions_veh215" vType="veh_passenger" speedFactor="1.00" vaporized="">
        <emissions CO_abs="5947.958794" CO2_abs="378484.674876" HC_abs="36.274066" PMx_abs="8.038870" NOx_abs="157.779133" fuel_abs="120718.200241" electricity_abs="0"/>
    </tripinfo>
    <tripinfo id="veh240" depart="30.00" departLane="102015151#7_0" departPos="5.10" departSpeed="0.00" departDelay="0.57" arrival="87.00" arrivalLane="1124394722#12_1" arrivalPos="41.16" arrivalSpeed="31.37" duration="57.00" routeLength="648.21" waitingTime="9.00" waitingCount="1" stopTime="0.00" timeLoss="31.83" rerouteNo="1" devices="tripinfo_veh240 routing_veh240 emissions_veh240" vType="veh_passenger" speedFactor="1.14" vaporized="">
        <emissions CO_abs="7955.210707" CO2_abs="378137.817675" HC_abs="45.462419" PMx_abs="8.523045" NOx_abs="162.805248" fuel_abs="120608.148870" electricity_abs="0"/>
    </tripinfo>
    <tripinfo id="veh8" depart="1.00" departLane="-1130841856#1_0" departPos="5.10" departSpeed="0.00" departDelay="0.02" arrival="88.00" arrivalLane="101943131#0_0" arrivalPos="45.63" arrivalSpeed="13.62" duration="87.00" routeLength="1029.13" waitingTime="0.00" waitingCount="0" stopTime="0.00" timeLoss="33.16" rerouteNo="1" devices="tripinfo_veh8 routing_veh8 emissions_veh8" vType="veh_passenger" speedFactor="0.89" vaporized="">
        <emissions CO_abs="7436.288739" CO2_abs="434483.480621" HC_abs="44.078491" PMx_abs="8.864852" NOx_abs="183.470530" fuel_abs="138579.492606" electricity_abs="0"/>
    </tripinfo>
    <tripinfo id="veh11" depart="2.00" departLane="-540134654#1_0" departPos="4.68" departSpeed="0.00" departDelay="0.65" arrival="88.00" arrivalLane="-52152402#10_0" arrivalPos="36.60" arrivalSpeed="21.05" duration="86.00" routeLength="1196.02" waitingTime="0.00" waitingCount="0" stopTime="0.00" timeLoss="33.36" rerouteNo="1" devices="tripinfo_veh11 routing_veh11 emissions_veh11" vType="veh_passenger" speedFactor="1.09" vaporized="">
        <emissions CO_abs="7673.274862" CO2_abs="485659.525172" HC_abs="46.594697" PMx_abs="10.081740" NOx_abs="205.063037" fuel_abs="154901.718490" electricity_abs="0"/>
    </tripinfo>
    <tripinfo id="veh184" depart="23.00" departLane="1124391489#1_0" departPos="5.10" departSpeed="0.00" departDelay="0.44" arrival="88.00" arrivalLane="-105738793#2_0" arrivalPos="33.16" arrivalSpeed="13.10" duration="65.00" routeLength="713.47" waitingTime="0.00" waitingCount="0" stopTime="0.00" timeLoss="12.23" rerouteNo="1" devices="tripinfo_veh184 routing_veh184 emissions_veh184" vType="veh_passenger" speedFactor="1.03" vaporized="">
        <emissions CO_abs="3563.719881" CO2_abs="231844.148195" HC_abs="21.572271" PMx_abs="4.279034" NOx_abs="95.631182" fuel_abs="73947.421352" electricity_abs="0"/>
    </tripinfo>
    <tripinfo id="veh463" depart="57.00" departLane="-52152395#0_0" departPos="5.10" departSpeed="0.00" departDelay="0.23" arrival="89.00" arrivalLane="-103010074#4_0" arrivalPos="18.05" arrivalSpeed="17.36" duration="32.00" routeLength="453.95" waitingTime="0.00" waitingCount="0" stopTime="0.00" timeLoss="14.29" rerouteNo="1" devices="tripinfo_veh463 routing_veh463 emissions_veh463" vType="veh_passenger" speedFactor="1.12" vaporized="">
        <emissions CO_abs="4239.237424" CO2_abs="241570.074942" HC_abs="25.208412" PMx_abs="5.368058" NOx_abs="104.024869" fuel_abs="77048.985111" electricity_abs="0"/>
    </tripinfo>
    <tripinfo id="veh49" depart="7.00" departLane="105741941#4_0" departPos="5.10" departSpeed="0.00" departDelay="0.99" arrival="91.00" arrivalLane="1032034246#1_0" arrivalPos="39.07" arrivalSpeed="9.08" duration="84.00" routeLength="1003.60" waitingTime="6.00" waitingCount="1" stopTime="0.00" timeLoss="30.94" rerouteNo="1" devices="tripinfo_veh49 routing_veh49 emissions_veh49" vType="veh_passenger" speedFactor="0.88" vaporized="">
        <emissions CO_abs="6829.729282" CO2_abs="360147.929564" HC_abs="39.772136" PMx_abs="7.366579" NOx_abs="150.462148" fuel_abs="114870.579510" electricity_abs="0"/>
    </tripinfo>
    <tripinfo id="veh270" depart="37.00" departLane="1124379127#10_0" departPos="5.10" departSpeed="0.00" departDelay="3.89" arrival="91.00" arrivalLane="-102192907#2_0" arrivalPos="3.76" arrivalSpeed="10.44" duration="54.00" routeLength="560.90" waitingTime="0.00" waitingCount="0" stopTime="0.00" timeLoss="11.29" rerouteNo="1" devices="tripinfo_veh270 routing_veh270 emissions_veh270" vType="veh_passenger" speedFactor="0.75" vaporized="">
        <emissions CO_abs="3014.452752" CO2_abs="182632.777055" HC_abs="17.947133" PMx_abs="3.300872" NOx_abs="74.729565" fuel_abs="58251.522146" electricity_abs="0"/>
    </tripinfo>
    <tripinfo id="veh65" depart="8.00" departLane="102192909#6_0" departPos="5.10" departSpeed="0.00" departDelay="0.03" arrival="92.00" arrivalLane="102945909#12_0" arrivalPos="6.09" arrivalSpeed="21.33" duration="84.00" routeLength="1230.65" waitingTime="0.00" waitingCount="0" stopTime="0.00" timeLoss="28.77" rerouteNo="1" devices="tripinfo_veh65 routing_veh65 emissions_veh65" vType="veh_passenger" speedFactor="0.99" vaporized="">
        <emissions CO_abs="7547.939554" CO2_abs="497427.135636" HC_abs="46.275420" PMx_abs="10.278297" NOx_abs="208.647967" fuel_abs="158654.934425" electricity_abs="0"/>
    </tripinfo>
    <tripinfo id="veh196" depart="25.00" departLane="-102023543#5_0" departPos="5.10" departSpeed="0.00" departDelay="0.97" arrival="92.00" arrivalLane="103594716#25_0" arrivalPos="73.90" arrivalSpeed="12.96" duration="67.00" routeLength="820.03" waitingTime="9.00" waitingCount="1" stopTime="0.00" timeLoss="30.67" rerouteNo="1" devices="tripinfo_veh196 routing_veh196 emissions_veh196" vType="veh_passenger" speedFactor="0.89" vaporized="">
        <emissions CO_abs="6842.871964" CO2_abs="352869.991115" HC_abs="39.674020" PMx_abs="7.500769" NOx_abs="149.478194" fuel_abs="112549.006166" electricity_abs="0"/>
    </tripinfo>
    <tripinfo id="veh334" depart="41.00" departLane="-104777725#1_0" departPos="5.10" departSpeed="0.00" departDelay="0.04" arrival="94.00" arrivalLane="-105258720#1_0" arrivalPos="12.91" arrivalSpeed="21.41" duration="53.00" routeLength="729.04" waitingTime="0.00" waitingCount="0" stopTime="0.00" timeLoss="11.31" rerouteNo="1" devices="tripinfo_veh334 routing_veh334 emissions_veh334" vType="veh_passenger" speedFactor="0.82" vaporized="">
        <emissions CO_abs="3849.080186" CO2_abs="246068.378456" HC_abs="23.355245" PMx_abs="4.853558" NOx_abs="101.140052" fuel_abs="78484.157745" electricity_abs="0"/>
    </tripinfo>
    <tripinfo id="veh449" depart="56.00" departLane="105258720#4_0" departPos="5.10" departSpeed="0.00" departDelay="0.94" arrival="97.00" arrivalLane="104777725#0_0" arrivalPos="2.48" arrivalSpeed="10.73" duration="41.00" routeLength="605.51" waitingTime="0.00" waitingCount="0" stopTime="0.00" timeLoss="13.70" rerouteNo="1" devices="tripinfo_veh449 routing_veh449 emissions_veh449" vType="veh_passenger" speedFactor="1.06" vaporized="">
        <emissions CO_abs="4101.600413" CO2_abs="242820.265292" HC_abs="24.605893" PMx_abs="5.226843" NOx_abs="102.056482" fuel_abs="77447.934079" electricity_abs="0"/>
    </tripinfo>
    <tripinfo id="veh70" depart="9.00" departLane="102023536#11_0" departPos="5.10" departSpeed="0.00" departDelay="0.42" arrival="100.00" arrivalLane="105258720#11_0" arrivalPos="45.69" arrivalSpeed="16.06" duration="91.00" routeLength="978.37" waitingTime="2.00" waitingCount="1" stopTime="0.00" timeLoss="19.34" rerouteNo="1" devices="tripinfo_veh70 routing_veh70 emissions_veh70" vType="veh_passenger" speedFactor="1.04" vaporized="">
        <emissions CO_abs="4423.765040" CO2_abs="296848.259706" HC_abs="26.697389" PMx_abs="4.895831" NOx_abs="117.862358" fuel_abs="94681.294467" electricity_abs="0"/>
    </tripinfo>
    <tripinfo id="veh279" depart="35.00" departLane="1102881626#0_0" departPos="5.10" departSpeed="0.00" departDelay="0.79" arrival="100.00" arrivalLane="-540139649#1_0" arrivalPos="19.02" arrivalSpeed="10.18" duration="65.00" routeLength="1034.31" waitingTime="0.00" waitingCount="0" stopTime="0.00" timeLoss="21.75" rerouteNo="1" devices="tripinfo_veh279 routing_veh279 emissions_veh279" vType="veh_passenger" speedFactor="0.96" vaporized="">
        <emissions CO_abs="5111.242180" CO2_abs="344584.915191" HC_abs="31.514561" PMx_abs="7.100317" NOx_abs="143.306601" fuel_abs="109905.775163" electricity_abs="0"/>
    </tripinfo>
    <tripinfo id="veh60" depart="8.00" departLane="101750899#1_0" departPos="5.10" departSpeed="0.00" departDelay="0.64" arrival="105.00" arrivalLane="-52152279#3_0" arrivalPos="32.26" arrivalSpeed="27.20" duration="97.00" routeLength="1291.86" waitingTime="0.00" waitingCount="0" stopTime="0.00" timeLoss="23.42" rerouteNo="1" devices="tripinfo_veh60 routing_veh60 emissions_veh60" vType="veh_passenger" speedFactor="1.02" vaporized="">
        <emissions CO_abs="7076.382017" CO2_abs="484732.079376" HC_abs="43.842315" PMx_abs="9.551587" NOx_abs="200.515022" fuel_abs="154606.199290" electricity_abs="0"/>
    </tripinfo>
    <tripinfo id="veh113" depart="14.00" departLane="102192909#13_0" departPos="5.10" departSpeed="0.00" departDelay="0.14" arrival="105.00" arrivalLane="-104227901#1_0" arrivalPos="37.40" arrivalSpeed="13.62" duration="91.00" routeLength="1296.07" waitingTime="0.00" waitingCount="0" stopTime="0.00" timeLoss="31.95" rerouteNo="1" devices="tripinfo_veh113 routing_veh113 emissions_veh113" vType="veh_passenger" speedFactor="0.96" vaporized="">
        <emissions CO_abs="8125.075953" CO2_abs="526425.187128" HC_abs="49.663511" PMx_abs="10.913848" NOx_abs="221.167155" fuel_abs="167903.975058" electricity_abs="0"/>
    </tripinfo>
    <tripinfo id="veh165" depart="21.00" departLane="1102881626#0_0" departPos="5.10" departSpeed="0.00" departDelay="0.77" arrival="105.00" arrivalLane="1166212048_0" arrivalPos="136.32" arrivalSpeed="30.34" duration="84.00" routeLength="1814.07" waitingTime="0.00" waitingCount="0" stopTime="0.00" timeLoss="26.08" rerouteNo="1" devices="tripinfo_veh165 routing_veh165 emissions_veh165" vType="veh_passenger" speedFactor="1.14" vaporized="">
        <emissions CO_abs="12635.425911" CO2_abs="764781.048004" HC_abs="76.532879" PMx_abs="17.639924" NOx_abs="323.286956" fuel_abs="243927.138529" electricity_abs="0"/>
    </tripinfo>
    <tripinfo id="veh292" depart="36.00" departLane="-105019300#2_0" departPos="5.10" departSpeed="0.00" departDelay="0.19" arrival="105.00" arrivalLane="1127845532#1_0" arrivalPos="76.64" arrivalSpeed="11.63" duration="69.00" routeLength="940.66" waitingTime="0.00" waitingCount="0" stopTime="0.00" timeLoss="16.48" rerouteNo="1" devices="tripinfo_veh292 routing_veh292 emissions_veh292" vType="veh_passenger" speedFactor="1.08" vaporized="">
        <emissions CO_abs="4520.935767" CO2_abs="314404.483326" HC_abs="27.916068" PMx_abs="6.017030" NOx_abs="128.157446" fuel_abs="100280.050128" electricity_abs="0"/>
    </tripinfo>
    <tripinfo id="veh296" depart="37.00" departLane="102192909#6_0" departPos="5.10" departSpeed="0.00" departDelay="0.70" arrival="105.00" arrivalLane="1124385971#3_0" arrivalPos="21.38" arrivalSpeed="27.66" duration="68.00" routeLength="1211.88" waitingTime="0.00" waitingCount="0" stopTime="0.00" timeLoss="22.45" rerouteNo="1" devices="tripinfo_veh296 routing_veh296 emissions_veh296" vType="veh_passenger" speedFactor="1.04" vaporized="">
        <emissions CO_abs="8749.163647" CO2_abs="543895.452008" HC_abs="53.217686" PMx_abs="12.152791" NOx_abs="231.600032" fuel_abs="173475.581256" electricity_abs="0"/>
    </tripinfo>
    <tripinfo id="veh106" depart="13.00" departLane="-103230612#7_0" departPos="5.10" departSpeed="0.00" departDelay="0.00" arrival="106.00" arrivalLane="1124385971#1_1" arrivalPos="20.15" arrivalSpeed="19.96" duration="93.00" routeLength="1319.10" waitingTime="0.00" waitingCount="0" stopTime="0.00" timeLoss="32.38" rerouteNo="1" devices="tripinfo_veh106 routing_veh106 emissions_veh106" vType="veh_passenger" speedFactor="0.97" vaporized="">
        <emissions CO_abs="8448.877840" CO2_abs="526881.790951" HC_abs="51.040428" PMx_abs="10.986808" NOx_abs="221.233270" fuel_abs="168049.731676" electricity_abs="0"/>
    </tripinfo>
    <tripinfo id="veh122" depart="15.00" departLane="105738792#4_0" departPos="5.10" departSpeed="0.00" departDelay="0.04" arrival="106.00" arrivalLane="-113752008#3_0" arrivalPos="15.83" arrivalSpeed="13.47" duration="91.00" routeLength="1110.70" waitingTime="2.00" waitingCount="1" stopTime="0.00" timeLoss="34.01" rerouteNo="1" devices="tripinfo_veh122 routing_veh122 emissions_veh122" vType="veh_passenger" speedFactor="0.99" vaporized="">
        <emissions CO_abs="7904.310194" CO2_abs="452224.244947" HC_abs="46.827205" PMx_abs="9.326522" NOx_abs="190.447952" fuel_abs="144238.073744" electricity_abs="0"/>
    </tripinfo>
    <tripinfo id="veh283" depart="35.00" departLane="-1124391474#2_1" departPos="5.10" departSpeed="0.00" departDelay="0.30" arrival="107.00" arrivalLane="-1130841856#6_0" arrivalPos="26.21" arrivalSpeed="22.17" duration="72.00" routeLength="1153.67" waitingTime="1.00" waitingCount="1" stopTime="0.00" timeLoss="24.05" rerouteNo="1" devices="tripinfo_veh283 routing_veh283 emissions_veh283" vType="veh_passenger" speedFactor="1.05" vaporized="">
        <emissions CO_abs="7822.366227" CO2_abs="470137.055710" HC_abs="47.130687" PMx_abs="10.293675" NOx_abs="199.086985" fuel_abs="149950.707745" electricity_abs="0"/>
    </tripinfo>
    <tripinfo id="veh216" depart="27.00" departLane="-105741927#7_0" departPos="5.10" departSpeed="0.00" departDelay="0.51" arrival="108.00" arrivalLane="116237632#19_0" arrivalPos="37.07" arrivalSpeed="13.51" duration="81.00" routeLength="759.70" waitingTime="3.00" waitingCount="1" stopTime="0.00" timeLoss="30.27" rerouteNo="1" devices="tripinfo_veh216 routing_veh216 emissions_veh216" vType="veh_passenger" speedFactor="0.97" vaporized="">
        <emissions CO_abs="5427.458431" CO2_abs="299281.301900" HC_abs="31.750866" PMx_abs="5.674882" NOx_abs="125.204377" fuel_abs="95457.038956" electricity_abs="0"/>
    </tripinfo>
    <tripinfo id="veh373" depart="46.00" departLane="1124394722#17_1" departPos="5.10" departSpeed="0.00" departDelay="0.26" arrival="108.00" arrivalLane="105019216#1_1" arrivalPos="42.01" arrivalSpeed="25.70" duration="62.00" routeLength="945.13" waitingTime="8.00" waitingCount="1" stopTime="0.00" timeLoss="23.78" rerouteNo="1" devices="tripinfo_veh373 routing_veh373 emissions_veh373" vType="veh_passenger" speedFactor="0.95" vaporized="">
        <emissions CO_abs="6342.637581" CO2_abs="345219.328583" HC_abs="37.146220" PMx_abs="7.334840" NOx_abs="142.033662" fuel_abs="110108.853074" electricity_abs="0"/>
    </tripinfo>
    <tripinfo id="veh379" depart="56.00" departLane="103477652#0_0" departPos="5.10" departSpeed="0.00" departDelay="9.53" arrival="109.00" arrivalLane="103230612#11_0" arrivalPos="17.67" arrivalSpeed="11.04" duration="53.00" routeLength="666.38" waitingTime="0.00" waitingCount="0" stopTime="0.00" timeLoss="15.27" rerouteNo="1" devices="tripinfo_veh379 routing_veh379 emissions_veh379" vType="veh_passenger" speedFactor="1.00" vaporized="">
        <emissions CO_abs="4181.073243" CO2_abs="258184.943359" HC_abs="25.077273" PMx_abs="5.008976" NOx_abs="106.497246" fuel_abs="82348.850563" electricity_abs="0"/>
    </tripinfo>
    <tripinfo id="veh317" depart="39.00" departLane="1078379817#2_0" departPos="5.10" departSpeed="0.00" departDelay="0.13" arrival="110.00" arrivalLane="-1031992818#2_0" arrivalPos="1.59" arrivalSpeed="5.62" duration="71.00" routeLength="1513.84" waitingTime="0.00" waitingCount="0" stopTime="0.00" timeLoss="16.79" rerouteNo="1" devices="tripinfo_veh317 routing_veh317 emissions_veh317" vType="veh_passenger" speedFactor="1.06" vaporized="">
        <emissions CO_abs="7036.998059" CO2_abs="461859.601570" HC_abs="43.390552" PMx_abs="10.133569" NOx_abs="186.406379" fuel_abs="147310.857817" electricity_abs="0"/>
    </tripinfo>
    <tripinfo id="veh77" depart="10.00" departLane="-105605195_1" departPos="5.10" departSpeed="0.00" departDelay="0.56" arrival="111.00" arrivalLane="-105578115#1_0" arrivalPos="18.12" arrivalSpeed="12.43" duration="101.00" routeLength="1722.57" waitingTime="0.00" waitingCount="0" stopTime="0.00" timeLoss="18.50" rerouteNo="1" devices="tripinfo_veh77 routing_veh77 emissions_veh77" vType="veh_passenger" speedFactor="0.96" vaporized="">
        <emissions CO_abs="6070.962522" CO2_abs="441779.470019" HC_abs="38.272860" PMx_abs="8.652251" NOx_abs="175.208022" fuel_abs="140906.757502" electricity_abs="0"/>
    </tripinfo>
    <tripinfo id="veh133" depart="17.00" departLane="-113382310_0" departPos="5.10" departSpeed="0.00" departDelay="0.69" arrival="111.00" arrivalLane="-113752008#0_0" arrivalPos="55.01" arrivalSpeed="14.85" duration="94.00" routeLength="1436.63" waitingTime="6.00" waitingCount="1" stopTime="0.00" timeLoss="37.85" rerouteNo="1" devices="tripinfo_veh133 routing_veh133 emissions_veh133" vType="veh_passenger" speedFactor="1.12" vaporized="">
        <emissions CO_abs="8287.009093" CO2_abs="468853.001734" HC_abs="49.072314" PMx_abs="9.926768" NOx_abs="194.523333" fuel_abs="149541.978964" electricity_abs="0"/>
    </tripinfo>
    <tripinfo id="veh80" depart="10.00" departLane="116237632#5_0" departPos="5.10" departSpeed="0.00" departDelay="0.19" arrival="112.00" arrivalLane="102023600#8_0" arrivalPos="16.71" arrivalSpeed="9.83" duration="102.00" routeLength="1444.14" waitingTime="0.00" waitingCount="0" stopTime="0.00" timeLoss="22.73" rerouteNo="1" devices="tripinfo_veh80 routing_veh80 emissions_veh80" vType="veh_passenger" speedFactor="0.98" vaporized="">
        <emissions CO_abs="6890.596928" CO2_abs="469072.176950" HC_abs="42.504478" PMx_abs="9.178581" NOx_abs="192.131703" fuel_abs="149611.617523" electricity_abs="0"/>
    </tripinfo>
    <tripinfo id="veh501" depart="65.00" departLane="239266478#5_1" departPos="0.20" departSpeed="0.00" departDelay="3.57" arrival="112.00" arrivalLane="-52152288#6_0" arrivalPos="54.83" arrivalSpeed="23.22" duration="47.00" routeLength="718.06" waitingTime="0.00" waitingCount="0" stopTime="0.00" timeLoss="16.91" rerouteNo="1" devices="tripinfo_veh501 routing_veh501 emissions_veh501" vType="veh_passenger" speedFactor="1.06" vaporized="">
        <emissions CO_abs="4527.453078" CO2_abs="301495.678225" HC_abs="27.744827" PMx_abs="6.195769" NOx_abs="125.638120" fuel_abs="96162.416605" electricity_abs="0"/>
    </tripinfo>
    <tripinfo id="veh33" depart="5.00" departLane="104777725#9_0" departPos="5.10" departSpeed="0.00" departDelay="0.95" arrival="113.00" arrivalLane="52152395#1_0" arrivalPos="24.04" arrivalSpeed="19.84" duration="108.00" routeLength="1559.24" waitingTime="0.00" waitingCount="0" stopTime="0.00" timeLoss="35.92" rerouteNo="1" devices="tripinfo_veh33 routing_veh33 emissions_veh33" vType="veh_passenger" speedFactor="1.01" vaporized="">
        <emissions CO_abs="10834.037816" CO2_abs="680596.736982" HC_abs="65.896905" PMx_abs="14.538914" NOx_abs="288.886154" fuel_abs="217076.910719" electricity_abs="0"/>
    </tripinfo>