<?xml version="1.0" encoding="UTF-8"?>

<!-- generated on 2023-05-02 13:25:52 by Eclipse SUMO GUI Version 1.15.0
<configuration xmlns:xsi="http://www.w3.org/2001/XMLSchema-instance" xsi:noNamespaceSchemaLocation="http://sumo.dlr.de/xsd/sumoConfiguration.xsd">

    <input>
        <net-file value="C:\Users\dell\Sumo\b14 c120\osm.net.xml.gz"/>
        <route-files value="C:\Users\dell\Sumo\b14 c120\osm_pt.rou.xml,C:\Users\dell\Sumo\b14 c120\osm.bus.trips.xml,C:\Users\dell\Sumo\b14 c120\osm.passenger.trips.xml"/>
        <additional-files value="C:\Users\dell\Sumo\b14 c120\osm.poly.xml.gz,C:\Users\dell\Sumo\b14 c120\osm_stops.add.xml"/>
    </input>

    <output>
        <emission-output value="C:\Users\dell\Sumo\b14 c120\emissions_c120_b14.xml"/>
        <tripinfo-output value="C:\Users\dell\Sumo\b14 c120\tripinfo_c120_b14.xml"/>
    </output>

    <time>
        <begin value="0"/>
        <end value="600"/>
    </time>

    <processing>
        <ignore-route-errors value="true"/>
    </processing>

    <routing>
        <device.rerouting.adaptation-steps value="18"/>
        <device.rerouting.adaptation-interval value="10"/>
    </routing>

    <report>
        <verbose value="true"/>
        <duration-log.statistics value="true"/>
        <no-step-log value="true"/>
    </report>

    <gui_only>
        <gui-settings-file value="C:\Users\dell\Sumo\b14 c120\osm.view.xml"/>
    </gui_only>

</configuration>
-->

<tripinfos xmlns:xsi="http://www.w3.org/2001/XMLSchema-instance" xsi:noNamespaceSchemaLocation="http://sumo.dlr.de/xsd/tripinfo_file.xsd">
    <tripinfo id="veh38" depart="7.00" departLane="103477632#4_0" departPos="5.10" departSpeed="0.00" departDelay="0.01" arrival="51.00" arrivalLane="-1111799487#2_0" arrivalPos="38.09" arrivalSpeed="18.06" duration="44.00" routeLength="555.58" waitingTime="0.00" waitingCount="0" stopTime="0.00" timeLoss="21.86" rerouteNo="1" devices="tripinfo_veh38 routing_veh38 emissions_veh38" vType="veh_passenger" speedFactor="1.18" vaporized="">
        <emissions CO_abs="4898.172444" CO2_abs="296915.732488" HC_abs="29.499965" PMx_abs="6.350694" NOx_abs="127.826237" fuel_abs="94701.491547" electricity_abs="0"/>
    </tripinfo>
    <tripinfo id="veh9" depart="2.00" departLane="1130603776_0" departPos="5.10" departSpeed="26.05" departDelay="0.34" arrival="55.00" arrivalLane="1102881626#0_0" arrivalPos="35.16" arrivalSpeed="12.30" duration="53.00" routeLength="1254.20" waitingTime="0.00" waitingCount="0" stopTime="0.00" timeLoss="4.47" rerouteNo="1" devices="tripinfo_veh9 routing_veh9 emissions_veh9" vType="veh_passenger" speedFactor="0.94" vaporized="">
        <emissions CO_abs="3796.517614" CO2_abs="301582.575076" HC_abs="24.373814" PMx_abs="6.293318" NOx_abs="117.341844" fuel_abs="96190.169454" electricity_abs="0"/>
    </tripinfo>
    <tripinfo id="veh26" depart="5.00" departLane="103594716#6_0" departPos="5.10" departSpeed="0.00" departDelay="0.22" arrival="63.00" arrivalLane="1124391477_0" arrivalPos="52.67" arrivalSpeed="14.23" duration="58.00" routeLength="1063.52" waitingTime="0.00" waitingCount="0" stopTime="0.00" timeLoss="12.49" rerouteNo="1" devices="tripinfo_veh26 routing_veh26 emissions_veh26" vType="veh_passenger" speedFactor="0.87" vaporized="">
        <emissions CO_abs="3413.106394" CO2_abs="276599.134932" HC_abs="21.782553" PMx_abs="5.255443" NOx_abs="106.637118" fuel_abs="88222.030022" electricity_abs="0"/>
    </tripinfo>
    <tripinfo id="veh18" depart="4.00" departLane="1102881626#2_0" departPos="5.10" departSpeed="0.00" departDelay="0.69" arrival="72.00" arrivalLane="-102015135#2_0" arrivalPos="15.05" arrivalSpeed="20.91" duration="68.00" routeLength="1177.98" waitingTime="2.00" waitingCount="1" stopTime="0.00" timeLoss="16.84" rerouteNo="1" devices="tripinfo_veh18 routing_veh18 emissions_veh18" vType="veh_passenger" speedFactor="0.94" vaporized="">
        <emissions CO_abs="5516.599245" CO2_abs="372487.458506" HC_abs="33.915565" PMx_abs="7.502797" NOx_abs="148.832047" fuel_abs="118805.838605" electricity_abs="0"/>
    </tripinfo>
    <tripinfo id="veh71" depart="14.00" departLane="1032034246#3_0" departPos="5.10" departSpeed="0.00" departDelay="0.94" arrival="78.00" arrivalLane="1124391478_0" arrivalPos="43.79" arrivalSpeed="23.80" duration="64.00" routeLength="701.71" waitingTime="0.00" waitingCount="0" stopTime="0.00" timeLoss="8.41" rerouteNo="1" devices="tripinfo_veh71 routing_veh71 emissions_veh71" vType="veh_passenger" speedFactor="1.02" vaporized="">
        <emissions CO_abs="3104.436304" CO2_abs="217776.473993" HC_abs="19.244607" PMx_abs="3.779601" NOx_abs="87.879202" fuel_abs="69460.673697" electricity_abs="0"/>
    </tripinfo>
    <tripinfo id="veh81" depart="15.00" departLane="105738779#1_0" departPos="5.10" departSpeed="0.00" departDelay="0.10" arrival="78.00" arrivalLane="-105738792#0_0" arrivalPos="30.54" arrivalSpeed="21.59" duration="63.00" routeLength="798.22" waitingTime="0.00" waitingCount="0" stopTime="0.00" timeLoss="21.48" rerouteNo="1" devices="tripinfo_veh81 routing_veh81 emissions_veh81" vType="veh_passenger" speedFactor="1.01" vaporized="">
        <emissions CO_abs="5498.241502" CO2_abs="353631.216358" HC_abs="33.563200" PMx_abs="7.212291" NOx_abs="149.058680" fuel_abs="112791.192940" electricity_abs="0"/>
    </tripinfo>
    <tripinfo id="veh53" depart="10.00" departLane="27552926#1_0" departPos="5.10" departSpeed="0.00" departDelay="0.25" arrival="79.00" arrivalLane="-1112459426_0" arrivalPos="51.33" arrivalSpeed="13.20" duration="69.00" routeLength="701.74" waitingTime="0.00" waitingCount="0" stopTime="0.00" timeLoss="11.09" rerouteNo="1" devices="tripinfo_veh53 routing_veh53 emissions_veh53" vType="veh_passenger" speedFactor="1.02" vaporized="">
        <emissions CO_abs="3161.788119" CO2_abs="210864.984474" HC_abs="19.258387" PMx_abs="3.476265" NOx_abs="84.624921" fuel_abs="67256.470827" electricity_abs="0"/>
    </tripinfo>
    <tripinfo id="veh49" depart="10.00" departLane="105741941#4_0" departPos="5.10" departSpeed="0.00" departDelay="0.99" arrival="81.00" arrivalLane="1032034246#1_0" arrivalPos="39.07" arrivalSpeed="9.73" duration="71.00" routeLength="1003.60" waitingTime="0.00" waitingCount="0" stopTime="0.00" timeLoss="17.56" rerouteNo="1" devices="tripinfo_veh49 routing_veh49 emissions_veh49" vType="veh_passenger" speedFactor="0.88" vaporized="">
        <emissions CO_abs="4814.142505" CO2_abs="316523.199620" HC_abs="29.398784" PMx_abs="6.181994" NOx_abs="129.167569" fuel_abs="100955.930839" electricity_abs="0"/>
    </tripinfo>
    <tripinfo id="veh21" depart="4.00" departLane="102945916#4_0" departPos="5.10" departSpeed="0.00" departDelay="0.14" arrival="83.00" arrivalLane="-1130841856#3_0" arrivalPos="33.77" arrivalSpeed="22.53" duration="79.00" routeLength="1162.51" waitingTime="0.00" waitingCount="0" stopTime="0.00" timeLoss="30.11" rerouteNo="1" devices="tripinfo_veh21 routing_veh21 emissions_veh21" vType="veh_passenger" speedFactor="1.02" vaporized="">
        <emissions CO_abs="7430.638343" CO2_abs="483988.381741" HC_abs="45.463828" PMx_abs="10.171156" NOx_abs="204.684032" fuel_abs="154368.473546" electricity_abs="0"/>
    </tripinfo>
    <tripinfo id="veh42" depart="8.00" departLane="-102825250#1_0" departPos="5.10" departSpeed="0.00" departDelay="0.27" arrival="83.00" arrivalLane="-102015135#6_0" arrivalPos="49.99" arrivalSpeed="20.04" duration="75.00" routeLength="1021.00" waitingTime="0.00" waitingCount="0" stopTime="0.00" timeLoss="27.78" rerouteNo="1" devices="tripinfo_veh42 routing_veh42 emissions_veh42" vType="veh_passenger" speedFactor="0.96" vaporized="">
        <emissions CO_abs="6742.314340" CO2_abs="429580.627215" HC_abs="41.076349" PMx_abs="8.933453" NOx_abs="180.995308" fuel_abs="137015.303461" electricity_abs="0"/>
    </tripinfo>
    <tripinfo id="veh11" depart="3.00" departLane="-540134654#1_0" departPos="4.68" departSpeed="0.00" departDelay="0.98" arrival="84.00" arrivalLane="-52152402#10_0" arrivalPos="36.60" arrivalSpeed="22.14" duration="81.00" routeLength="1196.02" waitingTime="0.00" waitingCount="0" stopTime="0.00" timeLoss="27.63" rerouteNo="1" devices="tripinfo_veh11 routing_veh11 emissions_veh11" vType="veh_passenger" speedFactor="1.09" vaporized="">
        <emissions CO_abs="7517.501139" CO2_abs="457422.764526" HC_abs="45.361338" PMx_abs="9.726393" NOx_abs="190.703498" fuel_abs="145895.812359" electricity_abs="0"/>
    </tripinfo>
    <tripinfo id="veh8" depart="2.00" departLane="-1130841856#1_0" departPos="5.10" departSpeed="0.00" departDelay="0.53" arrival="86.00" arrivalLane="101943131#0_0" arrivalPos="45.63" arrivalSpeed="15.09" duration="84.00" routeLength="1029.13" waitingTime="0.00" waitingCount="0" stopTime="0.00" timeLoss="29.35" rerouteNo="1" devices="tripinfo_veh8 routing_veh8 emissions_veh8" vType="veh_passenger" speedFactor="0.89" vaporized="">
        <emissions CO_abs="7081.813118" CO2_abs="435418.353651" HC_abs="42.699499" PMx_abs="8.936716" NOx_abs="184.243343" fuel_abs="138877.405625" electricity_abs="0"/>
    </tripinfo>
    <tripinfo id="veh234" depart="47.00" departLane="102018257#0_0" departPos="5.10" departSpeed="0.00" departDelay="3.96" arrival="90.00" arrivalLane="52085865#30_0" arrivalPos="68.89" arrivalSpeed="9.77" duration="43.00" routeLength="479.88" waitingTime="0.00" waitingCount="0" stopTime="0.00" timeLoss="14.73" rerouteNo="1" devices="tripinfo_veh234 routing_veh234 emissions_veh234" vType="veh_passenger" speedFactor="0.97" vaporized="">
        <emissions CO_abs="2822.888389" CO2_abs="169461.020664" HC_abs="16.820978" PMx_abs="3.247915" NOx_abs="70.226282" fuel_abs="54050.173029" electricity_abs="0"/>
    </tripinfo>
    <tripinfo id="veh128" depart="24.00" departLane="27552926#2_0" departPos="5.10" departSpeed="0.00" departDelay="0.46" arrival="91.00" arrivalLane="27552926#12_0" arrivalPos="15.33" arrivalSpeed="11.22" duration="67.00" routeLength="668.75" waitingTime="0.00" waitingCount="0" stopTime="0.00" timeLoss="7.56" rerouteNo="1" devices="tripinfo_veh128 routing_veh128 emissions_veh128" vType="veh_passenger" speedFactor="1.02" vaporized="">
        <emissions CO_abs="2137.482112" CO2_abs="154429.358909" HC_abs="13.238990" PMx_abs="2.146413" NOx_abs="59.247131" fuel_abs="49256.396408" electricity_abs="0"/>
    </tripinfo>
    <tripinfo id="veh65" depart="12.00" departLane="102192909#6_0" departPos="5.10" departSpeed="0.00" departDelay="0.04" arrival="94.00" arrivalLane="102945909#12_0" arrivalPos="6.09" arrivalSpeed="20.69" duration="82.00" routeLength="1230.65" waitingTime="0.00" waitingCount="0" stopTime="0.00" timeLoss="25.92" rerouteNo="1" devices="tripinfo_veh65 routing_veh65 emissions_veh65" vType="veh_passenger" speedFactor="0.99" vaporized="">
        <emissions CO_abs="7363.004616" CO2_abs="488463.947756" HC_abs="45.228128" PMx_abs="10.256136" NOx_abs="206.077727" fuel_abs="155795.907422" electricity_abs="0"/>
    </tripinfo>
    <tripinfo id="veh158" depart="30.00" departLane="239266478#1_0" departPos="5.10" departSpeed="0.00" departDelay="0.94" arrival="94.00" arrivalLane="563179860#3_1" arrivalPos="42.78" arrivalSpeed="11.29" duration="64.00" routeLength="974.23" waitingTime="4.00" waitingCount="1" stopTime="0.00" timeLoss="19.70" rerouteNo="1" devices="tripinfo_veh158 routing_veh158 emissions_veh158" vType="veh_passenger" speedFactor="1.07" vaporized="">
        <emissions CO_abs="5885.176399" CO2_abs="320647.346729" HC_abs="34.624759" PMx_abs="6.802096" NOx_abs="131.331818" fuel_abs="102271.640670" electricity_abs="0"/>
    </tripinfo>
    <tripinfo id="veh196" depart="37.00" departLane="-102023543#5_0" departPos="5.10" departSpeed="0.00" departDelay="0.95" arrival="94.00" arrivalLane="103594716#25_0" arrivalPos="73.90" arrivalSpeed="12.30" duration="57.00" routeLength="820.03" waitingTime="3.00" waitingCount="1" stopTime="0.00" timeLoss="20.86" rerouteNo="1" devices="tripinfo_veh196 routing_veh196 emissions_veh196" vType="veh_passenger" speedFactor="0.89" vaporized="">
        <emissions CO_abs="5189.287700" CO2_abs="304457.796906" HC_abs="30.950396" PMx_abs="6.382488" NOx_abs="127.130634" fuel_abs="97107.520497" electricity_abs="0"/>
    </tripinfo>
    <tripinfo id="veh139" depart="26.00" departLane="-105258720#1_0" departPos="5.10" departSpeed="0.00" departDelay="0.43" arrival="95.00" arrivalLane="-1124391474#0_1" arrivalPos="17.27" arrivalSpeed="13.56" duration="69.00" routeLength="1098.10" waitingTime="0.00" waitingCount="0" stopTime="0.00" timeLoss="15.32" rerouteNo="1" devices="tripinfo_veh139 routing_veh139 emissions_veh139" vType="veh_passenger" speedFactor="1.23" vaporized="">
        <emissions CO_abs="4648.277631" CO2_abs="332435.328805" HC_abs="28.952734" PMx_abs="6.555726" NOx_abs="133.574184" fuel_abs="106030.984410" electricity_abs="0"/>
    </tripinfo>
    <tripinfo id="veh70" depart="13.00" departLane="102023536#11_0" departPos="5.10" departSpeed="0.00" departDelay="0.12" arrival="100.00" arrivalLane="105258720#11_0" arrivalPos="45.69" arrivalSpeed="16.75" duration="87.00" routeLength="978.37" waitingTime="0.00" waitingCount="0" stopTime="0.00" timeLoss="14.57" rerouteNo="1" devices="tripinfo_veh70 routing_veh70 emissions_veh70" vType="veh_passenger" speedFactor="1.04" vaporized="">
        <emissions CO_abs="3886.606694" CO2_abs="282181.426670" HC_abs="24.085110" PMx_abs="4.770211" NOx_abs="112.980589" fuel_abs="90002.902577" electricity_abs="0"/>
    </tripinfo>
    <tripinfo id="veh184" depart="34.00" departLane="1124391489#1_0" departPos="5.10" departSpeed="0.00" departDelay="0.16" arrival="100.00" arrivalLane="-105738793#2_0" arrivalPos="33.16" arrivalSpeed="13.42" duration="66.00" routeLength="713.47" waitingTime="0.00" waitingCount="0" stopTime="0.00" timeLoss="12.87" rerouteNo="1" devices="tripinfo_veh184 routing_veh184 emissions_veh184" vType="veh_passenger" speedFactor="1.03" vaporized="">
        <emissions CO_abs="3696.671042" CO2_abs="237188.519454" HC_abs="22.264722" PMx_abs="4.246389" NOx_abs="96.937886" fuel_abs="75652.214930" electricity_abs="0"/>
    </tripinfo>
    <tripinfo id="veh352" depart="65.00" departLane="102945916#1_0" departPos="5.10" departSpeed="0.00" departDelay="0.26" arrival="100.00" arrivalLane="102192909#16_0" arrivalPos="28.38" arrivalSpeed="11.71" duration="35.00" routeLength="409.30" waitingTime="0.00" waitingCount="0" stopTime="0.00" timeLoss="15.76" rerouteNo="1" devices="tripinfo_veh352 routing_veh352 emissions_veh352" vType="veh_passenger" speedFactor="1.11" vaporized="">
        <emissions CO_abs="3617.871964" CO2_abs="208462.095345" HC_abs="21.502274" PMx_abs="4.376491" NOx_abs="89.393233" fuel_abs="66489.331857" electricity_abs="0"/>
    </tripinfo>
    <tripinfo id="veh215" depart="40.00" departLane="-103021791#4_0" departPos="5.10" departSpeed="0.00" departDelay="0.45" arrival="101.00" arrivalLane="102015151#3_0" arrivalPos="1.56" arrivalSpeed="21.22" duration="61.00" routeLength="950.52" waitingTime="0.00" waitingCount="0" stopTime="0.00" timeLoss="20.99" rerouteNo="1" devices="tripinfo_veh215 routing_veh215 emissions_veh215" vType="veh_passenger" speedFactor="1.00" vaporized="">
        <emissions CO_abs="5918.885246" CO2_abs="371439.377986" HC_abs="35.875779" PMx_abs="7.846175" NOx_abs="155.427477" fuel_abs="118471.121771" electricity_abs="0"/>
    </tripinfo>
    <tripinfo id="bus3" depart="5.00" departLane="50219792#1_0" departPos="12.10" departSpeed="0.00" departDelay="0.27" arrival="103.00" arrivalLane="-102192907#7_0" arrivalPos="72.84" arrivalSpeed="13.28" duration="98.00" routeLength="1020.11" waitingTime="14.00" waitingCount="1" stopTime="0.00" timeLoss="55.75" rerouteNo="1" devices="tripinfo_bus3 routing_bus3 emissions_bus3" vType="bus_bus" speedFactor="1.00" vaporized="">
        <emissions CO_abs="3415.992061" CO2_abs="2314394.877059" HC_abs="639.799235" PMx_abs="365.630363" NOx_abs="17573.036439" fuel_abs="732389.626404" electricity_abs="0"/>
    </tripinfo>
    <tripinfo id="veh105" depart="20.00" departLane="-540134654#1_0" departPos="4.68" departSpeed="0.00" departDelay="0.69" arrival="106.00" arrivalLane="992291721#5_1" arrivalPos="73.39" arrivalSpeed="26.12" duration="86.00" routeLength="1409.08" waitingTime="0.00" waitingCount="0" stopTime="0.00" timeLoss="26.28" rerouteNo="1" devices="tripinfo_veh105 routing_veh105 emissions_veh105" vType="veh_passenger" speedFactor="0.96" vaporized="">
        <emissions CO_abs="7495.878149" CO2_abs="497801.322819" HC_abs="46.045865" PMx_abs="10.324710" NOx_abs="203.509852" fuel_abs="158774.593558" electricity_abs="0"/>
    </tripinfo>
    <tripinfo id="veh165" depart="34.00" departLane="1102881626#0_0" departPos="5.10" departSpeed="0.00" departDelay="3.65" arrival="106.00" arrivalLane="1166212048_1" arrivalPos="136.32" arrivalSpeed="31.46" duration="72.00" routeLength="1814.07" waitingTime="0.00" waitingCount="0" stopTime="0.00" timeLoss="14.18" rerouteNo="1" devices="tripinfo_veh165 routing_veh165 emissions_veh165" vType="veh_passenger" speedFactor="1.14" vaporized="">
        <emissions CO_abs="11169.301260" CO2_abs="660229.408573" HC_abs="67.421248" PMx_abs="15.489646" NOx_abs="272.898156" fuel_abs="210580.841682" electricity_abs="0"/>
    </tripinfo>
    <tripinfo id="veh270" depart="50.00" departLane="1124379127#10_0" departPos="5.10" departSpeed="0.00" departDelay="0.34" arrival="106.00" arrivalLane="-102192907#2_0" arrivalPos="3.76" arrivalSpeed="7.87" duration="56.00" routeLength="560.90" waitingTime="0.00" waitingCount="0" stopTime="0.00" timeLoss="13.32" rerouteNo="1" devices="tripinfo_veh270 routing_veh270 emissions_veh270" vType="veh_passenger" speedFactor="0.75" vaporized="">
        <emissions CO_abs="3244.093659" CO2_abs="190871.202861" HC_abs="19.168713" PMx_abs="3.467243" NOx_abs="78.166081" fuel_abs="60879.239901" electricity_abs="0"/>
    </tripinfo>
    <tripinfo id="bus4" depart="7.00" departLane="-101943160#8_0" departPos="12.10" departSpeed="0.00" departDelay="0.69" arrival="108.00" arrivalLane="101994129#8_0" arrivalPos="29.11" arrivalSpeed="21.50" duration="101.00" routeLength="1570.02" waitingTime="0.00" waitingCount="0" stopTime="0.00" timeLoss="36.51" rerouteNo="1" devices="tripinfo_bus4 routing_bus4 emissions_bus4" vType="bus_bus" speedFactor="1.00" vaporized="">
        <emissions CO_abs="4260.932428" CO2_abs="3222881.245317" HC_abs="768.733380" PMx_abs="463.073188" NOx_abs="23627.490545" fuel_abs="1019957.886632" electricity_abs="0"/>
    </tripinfo>
    <tripinfo id="veh60" depart="12.00" departLane="101750899#1_0" departPos="5.10" departSpeed="0.00" departDelay="0.96" arrival="110.00" arrivalLane="-52152279#3_0" arrivalPos="32.26" arrivalSpeed="20.47" duration="98.00" routeLength="1291.86" waitingTime="0.00" waitingCount="0" stopTime="0.00" timeLoss="24.68" rerouteNo="1" devices="tripinfo_veh60 routing_veh60 emissions_veh60" vType="veh_passenger" speedFactor="1.02" vaporized="">
        <emissions CO_abs="6528.979684" CO2_abs="448816.488584" HC_abs="40.357092" PMx_abs="8.647671" NOx_abs="185.127857" fuel_abs="143150.982290" electricity_abs="0"/>
    </tripinfo>
    <tripinfo id="veh216" depart="40.00" departLane="-105741927#7_0" departPos="5.10" departSpeed="0.00" departDelay="0.27" arrival="110.00" arrivalLane="116237632#19_0" arrivalPos="37.07" arrivalSpeed="16.24" duration="70.00" routeLength="759.70" waitingTime="0.00" waitingCount="0" stopTime="0.00" timeLoss="18.14" rerouteNo="1" devices="tripinfo_veh216 routing_veh216 emissions_veh216" vType="veh_passenger" speedFactor="0.97" vaporized="">
        <emissions CO_abs="4341.328232" CO2_abs="284526.301416" HC_abs="26.406551" PMx_abs="5.186114" NOx_abs="116.990495" fuel_abs="90750.634177" electricity_abs="0"/>
    </tripinfo>
    <tripinfo id="veh33" depart="7.00" departLane="104777725#9_0" departPos="5.10" departSpeed="0.00" departDelay="0.93" arrival="111.00" arrivalLane="52152395#1_0" arrivalPos="24.04" arrivalSpeed="18.93" duration="104.00" routeLength="1559.24" waitingTime="0.00" waitingCount="0" stopTime="0.00" timeLoss="32.00" rerouteNo="1" devices="tripinfo_veh33 routing_veh33 emissions_veh33" vType="veh_passenger" speedFactor="1.01" vaporized="">
        <emissions CO_abs="9357.701903" CO2_abs="604263.579859" HC_abs="57.224785" PMx_abs="12.654095" NOx_abs="252.353722" fuel_abs="192730.683706" electricity_abs="0"/>
    </tripinfo>
    <tripinfo id="veh106" depart="20.00" departLane="-103230612#7_0" departPos="5.10" departSpeed="0.00" departDelay="0.50" arrival="111.00" arrivalLane="1124385971#1_1" arrivalPos="20.15" arrivalSpeed="18.92" duration="91.00" routeLength="1319.10" waitingTime="0.00" waitingCount="0" stopTime="0.00" timeLoss="29.13" rerouteNo="1" devices="tripinfo_veh106 routing_veh106 emissions_veh106" vType="veh_passenger" speedFactor="0.97" vaporized="">
        <emissions CO_abs="7712.131621" CO2_abs="507959.744741" HC_abs="47.349845" PMx_abs="10.420612" NOx_abs="211.521932" fuel_abs="162014.534934" electricity_abs="0"/>
    </tripinfo>
    <tripinfo id="veh122" depart="23.00" departLane="105738792#4_0" departPos="5.10" departSpeed="0.00" departDelay="0.56" arrival="113.00" arrivalLane="-113752008#3_0" arrivalPos="15.83" arrivalSpeed="13.07" duration="90.00" routeLength="1110.70" waitingTime="0.00" waitingCount="0" stopTime="0.00" timeLoss="32.80" rerouteNo="1" devices="tripinfo_veh122 routing_veh122 emissions_veh122" vType="veh_passenger" speedFactor="0.99" vaporized="">
        <emissions CO_abs="7047.506597" CO2_abs="432611.492506" HC_abs="42.331656" PMx_abs="8.734479" NOx_abs="181.096340" fuel_abs="137982.398280" electricity_abs="0"/>
    </tripinfo>
    <tripinfo id="veh63" depart="12.00" departLane="113752026#1_0" departPos="5.10" departSpeed="0.00" departDelay="0.41" arrival="114.00" arrivalLane="102023536#9_0" arrivalPos="13.20" arrivalSpeed="10.18" duration="102.00" routeLength="1555.42" waitingTime="0.00" waitingCount="0" stopTime="0.00" timeLoss="30.40" rerouteNo="1" devices="tripinfo_veh63 routing_veh63 emissions_veh63" vType="veh_passenger" speedFactor="1.12" vaporized="">
        <emissions CO_abs="8890.664667" CO2_abs="565841.432748" HC_abs="54.148965" PMx_abs="11.880662" NOx_abs="236.027418" fuel_abs="180475.970065" electricity_abs="0"/>
    </tripinfo>
    <tripinfo id="veh77" depart="15.00" departLane="-105605195_1" departPos="5.10" departSpeed="0.00" departDelay="0.84" arrival="114.00" arrivalLane="-105578115#1_0" arrivalPos="18.12" arrivalSpeed="11.99" duration="99.00" routeLength="1722.57" waitingTime="0.00" waitingCount="0" stopTime="0.00" timeLoss="17.15" rerouteNo="1" devices="tripinfo_veh77 routing_veh77 emissions_veh77" vType="veh_passenger" speedFactor="0.96" vaporized="">
        <emissions CO_abs="6532.506502" CO2_abs="474097.308733" HC_abs="40.992838" PMx_abs="9.383949" NOx_abs="188.612833" fuel_abs="151214.467097" electricity_abs="0"/>
    </tripinfo>
    <tripinfo id="veh133" depart="25.00" departLane="-113382310_0" departPos="5.10" departSpeed="0.00" departDelay="0.54" arrival="114.00" arrivalLane="-113752008#0_0" arrivalPos="55.01" arrivalSpeed="14.45" duration="89.00" routeLength="1436.63" waitingTime="0.00" waitingCount="0" stopTime="0.00" timeLoss="32.68" rerouteNo="1" devices="tripinfo_veh133 routing_veh133 emissions_veh133" vType="veh_passenger" speedFactor="1.12" vaporized="">
        <emissions CO_abs="8012.211347" CO2_abs="493432.354400" HC_abs="48.338964" PMx_abs="10.470302" NOx_abs="205.615206" fuel_abs="157381.077026" electricity_abs="0"/>
    </tripinfo>
    <tripinfo id="veh104" depart="23.00" departLane="102192909#7_0" departPos="5.10" departSpeed="0.00" departDelay="3.87" arrival="115.00" arrivalLane="102023543#3_0" arrivalPos="27.18" arrivalSpeed="23.32" duration="92.00" routeLength="1647.53" waitingTime="0.00" waitingCount="0" stopTime="0.00" timeLoss="30.11" rerouteNo="1" devices="tripinfo_veh104 routing_veh104 emissions_veh104" vType="veh_passenger" speedFactor="1.06" vaporized="">
        <emissions CO_abs="10524.316874" CO2_abs="661669.911430" HC_abs="64.143770" PMx_abs="14.579454" NOx_abs="277.822658" fuel_abs="211040.122313" electricity_abs="0"/>
    </tripinfo>
    <tripinfo id="veh187" depart="35.00" departLane="-115654046#6_0" departPos="5.10" departSpeed="0.00" departDelay="0.60" arrival="115.00" arrivalLane="116237632#18_0" arrivalPos="251.77" arrivalSpeed="7.43" duration="80.00" routeLength="592.36" waitingTime="19.00" waitingCount="1" stopTime="0.00" timeLoss="53.22" rerouteNo="1" devices="tripinfo_veh187 routing_veh187 emissions_veh187" vType="veh_passenger" speedFactor="1.06" vaporized="">
        <emissions CO_abs="7598.815263" CO2_abs="279752.370934" HC_abs="41.197865" PMx_abs="5.874482" NOx_abs="120.244529" fuel_abs="89229.194036" electricity_abs="0"/>
    </tripinfo>
    <tripinfo id="veh283" depart="53.00" departLane="-1124391474#2_1" departPos="5.10" departSpeed="0.00" departDelay="0.95" arrival="116.00" arrivalLane="-1130841856#6_0" arrivalPos="26.21" arrivalSpeed="23.00" duration="63.00" routeLength="1153.67" waitingTime="0.00" waitingCount="0" stopTime="0.00" timeLoss="16.27" rerouteNo="1" devices="tripinfo_veh283 routing_veh283 emissions_veh283" vType="veh_passenger" speedFactor="1.05" vaporized="">
        <emissions CO_abs="7097.114924" CO2_abs="453364.380961" HC_abs="43.375583" PMx_abs="9.955569" NOx_abs="189.755389" fuel_abs="144600.885545" electricity_abs="0"/>
    </tripinfo>
    <tripinfo id="veh80" depart="15.00" departLane="116237632#5_0" departPos="5.10" departSpeed="0.00" departDelay="0.29" arrival="117.00" arrivalLane="102023600#8_0" arrivalPos="16.71" arrivalSpeed="10.56" duration="102.00" routeLength="1444.14" waitingTime="0.00" waitingCount="0" stopTime="0.00" timeLoss="22.40" rerouteNo="1" devices="tripinfo_veh80 routing_veh80 emissions_veh80" vType="veh_passenger" speedFactor="0.98" vaporized="">
        <emissions CO_abs="6845.132912" CO2_abs="467121.927731" HC_abs="42.121381" PMx_abs="9.142177" NOx_abs="190.827096" fuel_abs="148989.600401" electricity_abs="0"/>
    </tripinfo>
    <tripinfo id="veh175" depart="35.00" departLane="1124379127#11_1" departPos="5.10" departSpeed="0.00" departDelay="2.81" arrival="117.00" arrivalLane="-104184037#3_0" arrivalPos="45.79" arrivalSpeed="15.31" duration="82.00" routeLength="1324.10" waitingTime="0.00" waitingCount="0" stopTime="0.00" timeLoss="26.96" rerouteNo="1" devices="tripinfo_veh175 routing_veh175 emissions_veh175" vType="veh_passenger" speedFactor="0.94" vaporized="">
        <emissions CO_abs="7085.032489" CO2_abs="463907.487088" HC_abs="43.315462" PMx_abs="9.648401" NOx_abs="190.611478" fuel_abs="147964.083626" electricity_abs="0"/>
    </tripinfo>
    <tripinfo id="veh25" depart="5.00" departLane="-105578139#0_0" departPos="5.10" departSpeed="0.00" departDelay="0.40" arrival="119.00" arrivalLane="-104227921#0_0" arrivalPos="97.37" arrivalSpeed="10.32" duration="114.00" routeLength="964.92" waitingTime="0.00" waitingCount="0" stopTime="0.00" timeLoss="15.14" rerouteNo="1" devices="tripinfo_veh25 routing_veh25 emissions_veh25" vType="veh_passenger" speedFactor="0.83" vaporized="">
        <emissions CO_abs="4606.256143" CO2_abs="254399.419279" HC_abs="26.791621" PMx_abs="3.813667" NOx_abs="100.399939" fuel_abs="81142.881827" electricity_abs="0"/>
    </tripinfo>
    <tripinfo id="bus31" depart="49.00" departLane="-103010038#9_0" departPos="12.10" departSpeed="0.00" departDelay="0.13" arrival="120.00" arrivalLane="-105258720#3_0" arrivalPos="24.03" arrivalSpeed="22.11" duration="71.00" routeLength="859.10" waitingTime="0.00" waitingCount="0" stopTime="0.00" timeLoss="21.57" rerouteNo="1" devices="tripinfo_bus31 routing_bus31 emissions_bus31" vType="bus_bus" speedFactor="1.00" vaporized="">
        <emissions CO_abs="2127.462793" CO2_abs="1446289.075119" HC_abs="418.872583" PMx_abs="229.154696" NOx_abs="10943.429507" fuel_abs="457695.258759" electricity_abs="0"/>
    </tripinfo>
    <tripinfo id="veh379" depart="70.00" departLane="103477652#0_0" departPos="5.10" departSpeed="0.00" departDelay="0.29" arrival="120.00" arrivalLane="103230612#11_0" arrivalPos="17.67" arrivalSpeed="10.61" duration="50.00" routeLength="666.38" waitingTime="0.00" waitingCount="0" stopTime="0.00" timeLoss="12.42" rerouteNo="1" devices="tripinfo_veh379 routing_veh379 emissions_veh379" vType="veh_passenger" speedFactor="1.00" vaporized="">
        <emissions CO_abs="3568.720325" CO2_abs="240888.995618" HC_abs="21.983672" PMx_abs="4.705444" NOx_abs="99.573812" fuel_abs="76832.048243" electricity_abs="0"/>
    </tripinfo>
    <tripinfo id="veh463" depart="86.00" departLane="-52152395#0_0" departPos="5.10" departSpeed="0.00" departDelay="0.84" arrival="120.00" arrivalLane="-103010074#4_0" arrivalPos="18.05" arrivalSpeed="16.08" duration="34.00" routeLength="453.95" waitingTime="0.00" waitingCount="0" stopTime="0.00" timeLoss="16.42" rerouteNo="1" devices="tripinfo_veh463 routing_veh463 emissions_veh463" vType="veh_passenger" speedFactor="1.12" vaporized="">
        <emissions CO_abs="4145.736703" CO2_abs="237111.524099" HC_abs="24.654144" PMx_abs="5.196141" NOx_abs="102.027371" fuel_abs="75626.968946" electricity_abs="0"/>
    </tripinfo>
    <tripinfo id="veh279" depart="55.00" departLane="1102881626#0_1" departPos="5.10" departSpeed="0.00" departDelay="3.68" arrival="121.00" arrivalLane="-540139649#1_0" arrivalPos="19.02" arrivalSpeed="9.89" duration="66.00" routeLength="1034.31" waitingTime="0.00" waitingCount="0" stopTime="0.00" timeLoss="23.03" rerouteNo="1" devices="tripinfo_veh279 routing_veh279 emissions_veh279" vType="veh_passenger" speedFactor="0.96" vaporized="">
        <emissions CO_abs="6229.344391" CO2_abs="418166.346027" HC_abs="38.412457" PMx_abs="8.780065" NOx_abs="176.090902" fuel_abs="133374.430698" electricity_abs="0"/>
    </tripinfo>