<?xml version="1.0" encoding="UTF-8"?>

<!-- generated on 2023-05-02 13:16:53 by Eclipse SUMO GUI Version 1.15.0
<configuration xmlns:xsi="http://www.w3.org/2001/XMLSchema-instance" xsi:noNamespaceSchemaLocation="http://sumo.dlr.de/xsd/sumoConfiguration.xsd">

    <input>
        <net-file value="C:\Users\dell\Sumo\b12 c160\osm.net.xml.gz"/>
        <route-files value="C:\Users\dell\Sumo\b12 c160\osm_pt.rou.xml,C:\Users\dell\Sumo\b12 c160\osm.bus.trips.xml,C:\Users\dell\Sumo\b12 c160\osm.passenger.trips.xml"/>
        <additional-files value="C:\Users\dell\Sumo\b12 c160\osm.poly.xml.gz,C:\Users\dell\Sumo\b12 c160\osm_stops.add.xml"/>
    </input>

    <output>
        <emission-output value="C:\Users\dell\Sumo\b12 c160\emissions_c160_b12.xml"/>
        <tripinfo-output value="C:\Users\dell\Sumo\b12 c160\tripinfo_c160_b12.xml"/>
    </output>

    <time>
        <begin value="0"/>
        <end value="600"/>
    </time>

    <processing>
        <ignore-route-errors value="true"/>
    </processing>

    <routing>
        <device.rerouting.adaptation-steps value="18"/>
        <device.rerouting.adaptation-interval value="10"/>
    </routing>

    <report>
        <verbose value="true"/>
        <duration-log.statistics value="true"/>
        <no-step-log value="true"/>
    </report>

    <gui_only>
        <gui-settings-file value="C:\Users\dell\Sumo\b12 c160\osm.view.xml"/>
    </gui_only>

</configuration>
-->

<tripinfos xmlns:xsi="http://www.w3.org/2001/XMLSchema-instance" xsi:noNamespaceSchemaLocation="http://sumo.dlr.de/xsd/tripinfo_file.xsd">
    <tripinfo id="veh38" depart="6.00" departLane="103477632#4_0" departPos="5.10" departSpeed="0.00" departDelay="0.76" arrival="50.00" arrivalLane="-1111799487#2_0" arrivalPos="38.09" arrivalSpeed="19.54" duration="44.00" routeLength="555.58" waitingTime="0.00" waitingCount="0" stopTime="0.00" timeLoss="21.67" rerouteNo="1" devices="tripinfo_veh38 routing_veh38 emissions_veh38" vType="veh_passenger" speedFactor="1.18" vaporized="">
        <emissions CO_abs="4837.913373" CO2_abs="295195.237819" HC_abs="29.167963" PMx_abs="6.225269" NOx_abs="126.498965" fuel_abs="94152.819818" electricity_abs="0"/>
    </tripinfo>
    <tripinfo id="veh9" depart="2.00" departLane="1130603776_0" departPos="5.10" departSpeed="26.05" departDelay="0.76" arrival="55.00" arrivalLane="1102881626#0_0" arrivalPos="35.16" arrivalSpeed="25.78" duration="53.00" routeLength="1254.20" waitingTime="0.00" waitingCount="0" stopTime="0.00" timeLoss="4.25" rerouteNo="1" devices="tripinfo_veh9 routing_veh9 emissions_veh9" vType="veh_passenger" speedFactor="0.94" vaporized="">
        <emissions CO_abs="3513.403973" CO2_abs="300335.368549" HC_abs="23.117382" PMx_abs="6.148921" NOx_abs="115.773561" fuel_abs="95792.419981" electricity_abs="0"/>
    </tripinfo>
    <tripinfo id="veh26" depart="4.00" departLane="103594716#6_0" departPos="5.10" departSpeed="0.00" departDelay="0.41" arrival="63.00" arrivalLane="1124391477_0" arrivalPos="52.67" arrivalSpeed="15.17" duration="59.00" routeLength="1063.52" waitingTime="0.00" waitingCount="0" stopTime="0.00" timeLoss="13.34" rerouteNo="1" devices="tripinfo_veh26 routing_veh26 emissions_veh26" vType="veh_passenger" speedFactor="0.87" vaporized="">
        <emissions CO_abs="3930.367308" CO2_abs="288898.114092" HC_abs="24.731952" PMx_abs="5.723296" NOx_abs="114.846932" fuel_abs="92144.685256" electricity_abs="0"/>
    </tripinfo>
    <tripinfo id="veh18" depart="3.00" departLane="1102881626#2_0" departPos="5.10" departSpeed="0.00" departDelay="0.52" arrival="70.00" arrivalLane="-102015135#2_0" arrivalPos="15.05" arrivalSpeed="20.47" duration="67.00" routeLength="1177.98" waitingTime="1.00" waitingCount="1" stopTime="0.00" timeLoss="16.52" rerouteNo="1" devices="tripinfo_veh18 routing_veh18 emissions_veh18" vType="veh_passenger" speedFactor="0.94" vaporized="">
        <emissions CO_abs="5188.484204" CO2_abs="347988.644351" HC_abs="31.712143" PMx_abs="7.051356" NOx_abs="140.325080" fuel_abs="110991.762667" electricity_abs="0"/>
    </tripinfo>
    <tripinfo id="veh71" depart="10.00" departLane="1032034246#3_0" departPos="5.10" departSpeed="0.00" departDelay="0.21" arrival="75.00" arrivalLane="1124391478_0" arrivalPos="43.79" arrivalSpeed="24.21" duration="65.00" routeLength="701.71" waitingTime="0.00" waitingCount="0" stopTime="0.00" timeLoss="9.31" rerouteNo="1" devices="tripinfo_veh71 routing_veh71 emissions_veh71" vType="veh_passenger" speedFactor="1.02" vaporized="">
        <emissions CO_abs="3431.474112" CO2_abs="233461.055360" HC_abs="21.127047" PMx_abs="4.113298" NOx_abs="94.739377" fuel_abs="74463.314553" electricity_abs="0"/>
    </tripinfo>
    <tripinfo id="veh53" depart="8.00" departLane="27552926#1_0" departPos="5.10" departSpeed="0.00" departDelay="0.69" arrival="77.00" arrivalLane="-1112459426_0" arrivalPos="51.33" arrivalSpeed="13.01" duration="69.00" routeLength="701.74" waitingTime="0.00" waitingCount="0" stopTime="0.00" timeLoss="11.38" rerouteNo="1" devices="tripinfo_veh53 routing_veh53 emissions_veh53" vType="veh_passenger" speedFactor="1.02" vaporized="">
        <emissions CO_abs="3114.027868" CO2_abs="212357.947923" HC_abs="19.092023" PMx_abs="3.492419" NOx_abs="85.173100" fuel_abs="67732.625575" electricity_abs="0"/>
    </tripinfo>
    <tripinfo id="veh81" depart="12.00" departLane="105738779#1_0" departPos="5.10" departSpeed="0.00" departDelay="0.83" arrival="78.00" arrivalLane="-105738792#0_0" arrivalPos="30.54" arrivalSpeed="22.11" duration="66.00" routeLength="798.22" waitingTime="0.00" waitingCount="0" stopTime="0.00" timeLoss="24.41" rerouteNo="1" devices="tripinfo_veh81 routing_veh81 emissions_veh81" vType="veh_passenger" speedFactor="1.01" vaporized="">
        <emissions CO_abs="5777.651842" CO2_abs="357477.941863" HC_abs="34.869015" PMx_abs="7.262287" NOx_abs="150.497848" fuel_abs="114018.276627" electricity_abs="0"/>
    </tripinfo>
    <tripinfo id="veh11" depart="2.00" departLane="-540134654#1_0" departPos="4.68" departSpeed="0.00" departDelay="0.48" arrival="80.00" arrivalLane="-52152402#10_0" arrivalPos="36.60" arrivalSpeed="20.92" duration="78.00" routeLength="1196.02" waitingTime="0.00" waitingCount="0" stopTime="0.00" timeLoss="25.59" rerouteNo="1" devices="tripinfo_veh11 routing_veh11 emissions_veh11" vType="veh_passenger" speedFactor="1.09" vaporized="">
        <emissions CO_abs="7389.115862" CO2_abs="453144.089464" HC_abs="44.726402" PMx_abs="9.716586" NOx_abs="189.271919" fuel_abs="144531.020273" electricity_abs="0"/>
    </tripinfo>
    <tripinfo id="veh234" depart="35.00" departLane="102018257#0_0" departPos="5.10" departSpeed="0.00" departDelay="2.72" arrival="80.00" arrivalLane="52085865#30_0" arrivalPos="68.89" arrivalSpeed="10.14" duration="45.00" routeLength="479.88" waitingTime="0.00" waitingCount="0" stopTime="0.00" timeLoss="16.77" rerouteNo="1" devices="tripinfo_veh234 routing_veh234 emissions_veh234" vType="veh_passenger" speedFactor="0.97" vaporized="">
        <emissions CO_abs="3189.920187" CO2_abs="185699.956957" HC_abs="18.804146" PMx_abs="3.612948" NOx_abs="77.139324" fuel_abs="59229.629053" electricity_abs="0"/>
    </tripinfo>
    <tripinfo id="veh21" depart="3.00" departLane="102945916#4_0" departPos="5.10" departSpeed="0.00" departDelay="0.10" arrival="82.00" arrivalLane="-1130841856#3_0" arrivalPos="33.77" arrivalSpeed="22.47" duration="79.00" routeLength="1162.51" waitingTime="0.00" waitingCount="0" stopTime="0.00" timeLoss="29.60" rerouteNo="1" devices="tripinfo_veh21 routing_veh21 emissions_veh21" vType="veh_passenger" speedFactor="1.02" vaporized="">
        <emissions CO_abs="7200.888520" CO2_abs="478182.907271" HC_abs="44.276759" PMx_abs="9.903375" NOx_abs="200.348279" fuel_abs="152516.934024" electricity_abs="0"/>
    </tripinfo>
    <tripinfo id="veh158" depart="22.00" departLane="239266478#1_0" departPos="5.10" departSpeed="0.00" departDelay="0.20" arrival="83.00" arrivalLane="563179860#3_1" arrivalPos="42.78" arrivalSpeed="11.29" duration="61.00" routeLength="974.23" waitingTime="0.00" waitingCount="0" stopTime="0.00" timeLoss="16.77" rerouteNo="1" devices="tripinfo_veh158 routing_veh158 emissions_veh158" vType="veh_passenger" speedFactor="1.07" vaporized="">
        <emissions CO_abs="5264.089175" CO2_abs="315923.581383" HC_abs="31.709879" PMx_abs="6.630764" NOx_abs="127.908536" fuel_abs="100764.800953" electricity_abs="0"/>
    </tripinfo>
    <tripinfo id="veh128" depart="18.00" departLane="27552926#2_0" departPos="5.10" departSpeed="0.00" departDelay="0.34" arrival="84.00" arrivalLane="27552926#12_1" arrivalPos="15.33" arrivalSpeed="11.10" duration="66.00" routeLength="668.75" waitingTime="0.00" waitingCount="0" stopTime="0.00" timeLoss="6.38" rerouteNo="1" devices="tripinfo_veh128 routing_veh128 emissions_veh128" vType="veh_passenger" speedFactor="1.02" vaporized="">
        <emissions CO_abs="2089.169494" CO2_abs="157357.285452" HC_abs="13.094791" PMx_abs="2.153407" NOx_abs="60.108652" fuel_abs="50190.263555" electricity_abs="0"/>
    </tripinfo>
    <tripinfo id="veh352" depart="49.00" departLane="102945916#1_0" departPos="5.10" departSpeed="0.00" departDelay="0.44" arrival="85.00" arrivalLane="102192909#16_0" arrivalPos="28.38" arrivalSpeed="12.85" duration="36.00" routeLength="409.30" waitingTime="0.00" waitingCount="0" stopTime="0.00" timeLoss="16.47" rerouteNo="1" devices="tripinfo_veh352 routing_veh352 emissions_veh352" vType="veh_passenger" speedFactor="1.11" vaporized="">
        <emissions CO_abs="3416.460710" CO2_abs="197017.780648" HC_abs="20.265094" PMx_abs="4.083011" NOx_abs="83.956063" fuel_abs="62839.198233" electricity_abs="0"/>
    </tripinfo>
    <tripinfo id="veh8" depart="2.00" departLane="-1130841856#1_0" departPos="5.10" departSpeed="0.00" departDelay="0.90" arrival="86.00" arrivalLane="101943131#0_0" arrivalPos="45.63" arrivalSpeed="15.02" duration="84.00" routeLength="1029.13" waitingTime="0.00" waitingCount="0" stopTime="0.00" timeLoss="29.59" rerouteNo="1" devices="tripinfo_veh8 routing_veh8 emissions_veh8" vType="veh_passenger" speedFactor="0.89" vaporized="">
        <emissions CO_abs="6724.345274" CO2_abs="419856.442823" HC_abs="40.460755" PMx_abs="8.472592" NOx_abs="176.289553" fuel_abs="133913.983351" electricity_abs="0"/>
    </tripinfo>
    <tripinfo id="veh69" depart="10.00" departLane="-1087118364#8_0" departPos="5.10" departSpeed="0.00" departDelay="0.48" arrival="86.00" arrivalLane="239266478#7_0" arrivalPos="105.03" arrivalSpeed="19.38" duration="76.00" routeLength="806.62" waitingTime="4.00" waitingCount="1" stopTime="0.00" timeLoss="19.26" rerouteNo="1" devices="tripinfo_veh69 routing_veh69 emissions_veh69" vType="veh_passenger" speedFactor="0.91" vaporized="">
        <emissions CO_abs="5023.666562" CO2_abs="277356.091857" HC_abs="29.410087" PMx_abs="5.207006" NOx_abs="113.999883" fuel_abs="88464.070911" electricity_abs="0"/>
    </tripinfo>
    <tripinfo id="veh49" depart="7.00" departLane="105741941#4_0" departPos="5.10" departSpeed="0.00" departDelay="0.24" arrival="88.00" arrivalLane="1032034246#1_0" arrivalPos="39.07" arrivalSpeed="8.48" duration="81.00" routeLength="1003.60" waitingTime="2.00" waitingCount="1" stopTime="0.00" timeLoss="28.04" rerouteNo="1" devices="tripinfo_veh49 routing_veh49 emissions_veh49" vType="veh_passenger" speedFactor="0.88" vaporized="">
        <emissions CO_abs="6370.144983" CO2_abs="375410.650464" HC_abs="37.931424" PMx_abs="7.519699" NOx_abs="155.987019" fuel_abs="119738.338329" electricity_abs="0"/>
    </tripinfo>
    <tripinfo id="veh65" depart="9.00" departLane="102192909#6_0" departPos="5.10" departSpeed="0.00" departDelay="0.03" arrival="92.00" arrivalLane="102945909#12_0" arrivalPos="6.09" arrivalSpeed="19.74" duration="83.00" routeLength="1230.65" waitingTime="0.00" waitingCount="0" stopTime="0.00" timeLoss="28.09" rerouteNo="1" devices="tripinfo_veh65 routing_veh65 emissions_veh65" vType="veh_passenger" speedFactor="0.99" vaporized="">
        <emissions CO_abs="7475.034055" CO2_abs="503008.409579" HC_abs="46.119679" PMx_abs="10.440044" NOx_abs="211.739253" fuel_abs="160434.938343" electricity_abs="0"/>
    </tripinfo>
    <tripinfo id="veh184" depart="26.00" departLane="1124391489#1_0" departPos="5.10" departSpeed="0.00" departDelay="0.62" arrival="92.00" arrivalLane="-105738793#2_0" arrivalPos="33.16" arrivalSpeed="13.03" duration="66.00" routeLength="713.47" waitingTime="0.00" waitingCount="0" stopTime="0.00" timeLoss="13.02" rerouteNo="1" devices="tripinfo_veh184 routing_veh184 emissions_veh184" vType="veh_passenger" speedFactor="1.03" vaporized="">
        <emissions CO_abs="3666.561629" CO2_abs="235034.249697" HC_abs="22.144963" PMx_abs="4.280063" NOx_abs="96.459244" fuel_abs="74965.031241" electricity_abs="0"/>
    </tripinfo>
    <tripinfo id="veh187" depart="26.00" departLane="-115654046#6_0" departPos="5.10" departSpeed="0.00" departDelay="0.20" arrival="92.00" arrivalLane="116237632#18_0" arrivalPos="251.77" arrivalSpeed="6.70" duration="66.00" routeLength="592.36" waitingTime="3.00" waitingCount="2" stopTime="0.00" timeLoss="39.10" rerouteNo="1" devices="tripinfo_veh187 routing_veh187 emissions_veh187" vType="veh_passenger" speedFactor="1.06" vaporized="">
        <emissions CO_abs="7049.106307" CO2_abs="302514.081677" HC_abs="39.386331" PMx_abs="6.541328" NOx_abs="130.316583" fuel_abs="96488.345026" electricity_abs="0"/>
    </tripinfo>
    <tripinfo id="veh215" depart="30.00" departLane="-103021791#4_0" departPos="5.10" departSpeed="0.00" departDelay="0.34" arrival="92.00" arrivalLane="102015151#3_0" arrivalPos="1.56" arrivalSpeed="21.39" duration="62.00" routeLength="950.52" waitingTime="0.00" waitingCount="0" stopTime="0.00" timeLoss="21.58" rerouteNo="1" devices="tripinfo_veh215 routing_veh215 emissions_veh215" vType="veh_passenger" speedFactor="1.00" vaporized="">
        <emissions CO_abs="6038.065630" CO2_abs="379855.425435" HC_abs="36.739779" PMx_abs="8.085927" NOx_abs="160.657922" fuel_abs="121155.269587" electricity_abs="0"/>
    </tripinfo>
    <tripinfo id="veh196" depart="28.00" departLane="-102023543#5_0" departPos="5.10" departSpeed="0.00" departDelay="0.96" arrival="96.00" arrivalLane="103594716#25_0" arrivalPos="73.90" arrivalSpeed="10.92" duration="68.00" routeLength="820.03" waitingTime="12.00" waitingCount="1" stopTime="0.00" timeLoss="31.79" rerouteNo="1" devices="tripinfo_veh196 routing_veh196 emissions_veh196" vType="veh_passenger" speedFactor="0.89" vaporized="">
        <emissions CO_abs="7126.618320" CO2_abs="353506.213888" HC_abs="40.992687" PMx_abs="7.536665" NOx_abs="149.644871" fuel_abs="112752.099149" electricity_abs="0"/>
    </tripinfo>
    <tripinfo id="veh270" depart="39.00" departLane="1124379127#10_0" departPos="5.10" departSpeed="0.00" departDelay="1.75" arrival="96.00" arrivalLane="-102192907#2_0" arrivalPos="3.76" arrivalSpeed="9.63" duration="57.00" routeLength="560.90" waitingTime="0.00" waitingCount="0" stopTime="0.00" timeLoss="13.96" rerouteNo="1" devices="tripinfo_veh270 routing_veh270 emissions_veh270" vType="veh_passenger" speedFactor="0.75" vaporized="">
        <emissions CO_abs="3302.791927" CO2_abs="198326.961263" HC_abs="19.648388" PMx_abs="3.592899" NOx_abs="81.471966" fuel_abs="63257.253726" electricity_abs="0"/>
    </tripinfo>
    <tripinfo id="veh463" depart="64.00" departLane="-52152395#0_0" departPos="5.10" departSpeed="0.00" departDelay="0.13" arrival="97.00" arrivalLane="-103010074#4_0" arrivalPos="18.05" arrivalSpeed="16.07" duration="33.00" routeLength="453.95" waitingTime="0.00" waitingCount="0" stopTime="0.00" timeLoss="15.37" rerouteNo="1" devices="tripinfo_veh463 routing_veh463 emissions_veh463" vType="veh_passenger" speedFactor="1.12" vaporized="">
        <emissions CO_abs="4222.373444" CO2_abs="240653.060971" HC_abs="25.094004" PMx_abs="5.294549" NOx_abs="103.615954" fuel_abs="76756.536994" electricity_abs="0"/>
    </tripinfo>
    <tripinfo id="veh334" depart="47.00" departLane="-104777725#1_0" departPos="5.10" departSpeed="0.00" departDelay="0.92" arrival="99.00" arrivalLane="-105258720#1_0" arrivalPos="12.91" arrivalSpeed="22.81" duration="52.00" routeLength="729.04" waitingTime="0.00" waitingCount="0" stopTime="0.00" timeLoss="10.13" rerouteNo="1" devices="tripinfo_veh334 routing_veh334 emissions_veh334" vType="veh_passenger" speedFactor="0.82" vaporized="">
        <emissions CO_abs="3312.971837" CO2_abs="219876.531902" HC_abs="20.197407" PMx_abs="4.152477" NOx_abs="87.899957" fuel_abs="70130.375696" electricity_abs="0"/>
    </tripinfo>
    <tripinfo id="veh100" depart="14.00" departLane="1029381531#9_0" departPos="5.10" departSpeed="0.00" departDelay="0.21" arrival="103.00" arrivalLane="-105258720#5_0" arrivalPos="16.89" arrivalSpeed="26.84" duration="89.00" routeLength="846.35" waitingTime="8.00" waitingCount="1" stopTime="0.00" timeLoss="30.85" rerouteNo="1" devices="tripinfo_veh100 routing_veh100 emissions_veh100" vType="veh_passenger" speedFactor="1.01" vaporized="">
        <emissions CO_abs="7150.236462" CO2_abs="368455.035496" HC_abs="41.099862" PMx_abs="7.186633" NOx_abs="153.663767" fuel_abs="117520.469135" electricity_abs="0"/>
    </tripinfo>
    <tripinfo id="veh122" depart="17.00" departLane="105738792#4_0" departPos="5.10" departSpeed="0.00" departDelay="0.17" arrival="103.00" arrivalLane="-113752008#3_0" arrivalPos="15.83" arrivalSpeed="12.81" duration="86.00" routeLength="1110.70" waitingTime="0.00" waitingCount="0" stopTime="0.00" timeLoss="28.50" rerouteNo="1" devices="tripinfo_veh122 routing_veh122 emissions_veh122" vType="veh_passenger" speedFactor="0.99" vaporized="">
        <emissions CO_abs="7052.991440" CO2_abs="418536.770573" HC_abs="42.167205" PMx_abs="8.540999" NOx_abs="175.362270" fuel_abs="133493.336221" electricity_abs="0"/>
    </tripinfo>
    <tripinfo id="veh279" depart="39.00" departLane="1102881626#0_0" departPos="5.10" departSpeed="0.00" departDelay="0.51" arrival="104.00" arrivalLane="-540139649#1_0" arrivalPos="19.02" arrivalSpeed="10.88" duration="65.00" routeLength="1034.31" waitingTime="0.00" waitingCount="0" stopTime="0.00" timeLoss="20.96" rerouteNo="1" devices="tripinfo_veh279 routing_veh279 emissions_veh279" vType="veh_passenger" speedFactor="0.96" vaporized="">
        <emissions CO_abs="6055.048317" CO2_abs="402815.117335" HC_abs="37.290222" PMx_abs="8.464673" NOx_abs="168.966450" fuel_abs="128478.201847" electricity_abs="0"/>
    </tripinfo>
    <tripinfo id="veh449" depart="64.00" departLane="105258720#4_0" departPos="5.10" departSpeed="0.00" departDelay="2.06" arrival="105.00" arrivalLane="104777725#0_0" arrivalPos="2.48" arrivalSpeed="10.62" duration="41.00" routeLength="605.51" waitingTime="0.00" waitingCount="0" stopTime="0.00" timeLoss="12.96" rerouteNo="1" devices="tripinfo_veh449 routing_veh449 emissions_veh449" vType="veh_passenger" speedFactor="1.06" vaporized="">
        <emissions CO_abs="4040.213625" CO2_abs="243477.292842" HC_abs="24.338576" PMx_abs="5.196174" NOx_abs="101.825181" fuel_abs="77657.517283" electricity_abs="0"/>
    </tripinfo>
    <tripinfo id="veh70" depart="10.00" departLane="102023536#11_0" departPos="5.10" departSpeed="0.00" departDelay="0.34" arrival="106.00" arrivalLane="105258720#11_0" arrivalPos="45.69" arrivalSpeed="16.92" duration="96.00" routeLength="978.37" waitingTime="0.00" waitingCount="0" stopTime="0.00" timeLoss="24.67" rerouteNo="1" devices="tripinfo_veh70 routing_veh70 emissions_veh70" vType="veh_passenger" speedFactor="1.04" vaporized="">
        <emissions CO_abs="4936.201119" CO2_abs="303435.198876" HC_abs="29.466978" PMx_abs="5.288221" NOx_abs="122.920597" fuel_abs="96782.166291" electricity_abs="0"/>
    </tripinfo>
    <tripinfo id="veh60" depart="9.00" departLane="101750899#1_0" departPos="5.10" departSpeed="0.00" departDelay="0.72" arrival="107.00" arrivalLane="-52152279#3_0" arrivalPos="32.26" arrivalSpeed="26.07" duration="98.00" routeLength="1291.86" waitingTime="0.00" waitingCount="0" stopTime="0.00" timeLoss="25.33" rerouteNo="1" devices="tripinfo_veh60 routing_veh60 emissions_veh60" vType="veh_passenger" speedFactor="1.02" vaporized="">
        <emissions CO_abs="7082.245538" CO2_abs="489771.242628" HC_abs="43.827108" PMx_abs="9.505192" NOx_abs="201.326899" fuel_abs="156213.555036" electricity_abs="0"/>
    </tripinfo>
    <tripinfo id="veh379" depart="54.00" departLane="103477652#0_0" departPos="5.10" departSpeed="0.00" departDelay="1.72" arrival="107.00" arrivalLane="103230612#11_0" arrivalPos="17.67" arrivalSpeed="10.49" duration="53.00" routeLength="666.38" waitingTime="1.00" waitingCount="1" stopTime="0.00" timeLoss="15.83" rerouteNo="1" devices="tripinfo_veh379 routing_veh379 emissions_veh379" vType="veh_passenger" speedFactor="1.00" vaporized="">
        <emissions CO_abs="4127.348825" CO2_abs="253873.552723" HC_abs="24.788918" PMx_abs="5.055026" NOx_abs="105.731153" fuel_abs="80973.600216" electricity_abs="0"/>
    </tripinfo>
    <tripinfo id="veh77" depart="11.00" departLane="-105605195_1" departPos="5.10" departSpeed="0.00" departDelay="0.38" arrival="108.00" arrivalLane="-105578115#1_0" arrivalPos="18.12" arrivalSpeed="12.73" duration="97.00" routeLength="1722.57" waitingTime="0.00" waitingCount="0" stopTime="0.00" timeLoss="14.95" rerouteNo="1" devices="tripinfo_veh77 routing_veh77 emissions_veh77" vType="veh_passenger" speedFactor="0.96" vaporized="">
        <emissions CO_abs="5451.585788" CO2_abs="423698.469097" HC_abs="34.850556" PMx_abs="8.162742" NOx_abs="163.619811" fuel_abs="135139.914226" electricity_abs="0"/>
    </tripinfo>
    <tripinfo id="veh82" depart="12.00" departLane="-105258720#12_0" departPos="5.10" departSpeed="0.00" departDelay="0.69" arrival="108.00" arrivalLane="-1032034246#6_0" arrivalPos="16.80" arrivalSpeed="11.55" duration="96.00" routeLength="1564.42" waitingTime="0.00" waitingCount="0" stopTime="0.00" timeLoss="20.13" rerouteNo="1" devices="tripinfo_veh82 routing_veh82 emissions_veh82" vType="veh_passenger" speedFactor="1.09" vaporized="">
        <emissions CO_abs="6357.613502" CO2_abs="456219.922185" HC_abs="39.570710" PMx_abs="8.945603" NOx_abs="182.942418" fuel_abs="145512.408406" electricity_abs="0"/>
    </tripinfo>
    <tripinfo id="veh104" depart="15.00" departLane="102192909#7_0" departPos="5.10" departSpeed="0.00" departDelay="0.65" arrival="108.00" arrivalLane="102023543#3_0" arrivalPos="27.18" arrivalSpeed="22.71" duration="93.00" routeLength="1647.53" waitingTime="0.00" waitingCount="0" stopTime="0.00" timeLoss="31.77" rerouteNo="1" devices="tripinfo_veh104 routing_veh104 emissions_veh104" vType="veh_passenger" speedFactor="1.06" vaporized="">
        <emissions CO_abs="10589.838520" CO2_abs="661315.634794" HC_abs="64.373985" PMx_abs="14.525036" NOx_abs="278.061856" fuel_abs="210927.164571" electricity_abs="0"/>
    </tripinfo>
    <tripinfo id="veh133" depart="19.00" departLane="-113382310_0" departPos="5.10" departSpeed="0.00" departDelay="0.65" arrival="108.00" arrivalLane="-113752008#0_0" arrivalPos="55.01" arrivalSpeed="14.64" duration="89.00" routeLength="1436.63" waitingTime="0.00" waitingCount="0" stopTime="0.00" timeLoss="32.35" rerouteNo="1" devices="tripinfo_veh133 routing_veh133 emissions_veh133" vType="veh_passenger" speedFactor="1.12" vaporized="">
        <emissions CO_abs="8298.965138" CO2_abs="507709.997610" HC_abs="49.940806" PMx_abs="10.846983" NOx_abs="211.996702" fuel_abs="161934.884356" electricity_abs="0"/>
    </tripinfo>
    <tripinfo id="veh283" depart="40.00" departLane="-1124391474#2_1" departPos="5.10" departSpeed="0.00" departDelay="0.96" arrival="108.00" arrivalLane="-1130841856#6_0" arrivalPos="26.21" arrivalSpeed="23.00" duration="68.00" routeLength="1152.52" waitingTime="0.00" waitingCount="0" stopTime="0.00" timeLoss="19.65" rerouteNo="1" devices="tripinfo_veh283 routing_veh283 emissions_veh283" vType="veh_passenger" speedFactor="1.05" vaporized="">
        <emissions CO_abs="6517.351052" CO2_abs="443398.271175" HC_abs="40.393896" PMx_abs="9.346083" NOx_abs="183.326149" fuel_abs="141422.338211" electricity_abs="0"/>
    </tripinfo>
    <tripinfo id="veh33" depart="5.00" departLane="104777725#9_0" departPos="5.10" departSpeed="0.00" departDelay="0.45" arrival="111.00" arrivalLane="52152395#1_0" arrivalPos="24.04" arrivalSpeed="19.62" duration="106.00" routeLength="1559.24" waitingTime="0.00" waitingCount="0" stopTime="0.00" timeLoss="34.13" rerouteNo="1" devices="tripinfo_veh33 routing_veh33 emissions_veh33" vType="veh_passenger" speedFactor="1.01" vaporized="">
        <emissions CO_abs="9673.169989" CO2_abs="618431.327353" HC_abs="58.963610" PMx_abs="12.982306" NOx_abs="259.822292" fuel_abs="197249.417937" electricity_abs="0"/>
    </tripinfo>
    <tripinfo id="veh216" depart="30.00" departLane="-105741927#7_0" departPos="5.10" departSpeed="0.00" departDelay="0.20" arrival="111.00" arrivalLane="116237632#19_0" arrivalPos="37.07" arrivalSpeed="14.14" duration="81.00" routeLength="759.70" waitingTime="6.00" waitingCount="1" stopTime="0.00" timeLoss="29.23" rerouteNo="1" devices="tripinfo_veh216 routing_veh216 emissions_veh216" vType="veh_passenger" speedFactor="0.97" vaporized="">
        <emissions CO_abs="5679.248288" CO2_abs="305075.793563" HC_abs="32.873323" PMx_abs="5.529663" NOx_abs="125.234007" fuel_abs="97305.638123" electricity_abs="0"/>
    </tripinfo>
    <tripinfo id="veh292" depart="41.00" departLane="-105019300#2_0" departPos="5.10" departSpeed="0.00" departDelay="0.72" arrival="111.00" arrivalLane="1127845532#1_0" arrivalPos="76.64" arrivalSpeed="10.98" duration="70.00" routeLength="940.66" waitingTime="0.00" waitingCount="0" stopTime="0.00" timeLoss="16.84" rerouteNo="1" devices="tripinfo_veh292 routing_veh292 emissions_veh292" vType="veh_passenger" speedFactor="1.08" vaporized="">
        <emissions CO_abs="4384.569075" CO2_abs="310304.656063" HC_abs="27.094888" PMx_abs="5.819312" NOx_abs="125.678494" fuel_abs="98972.496987" electricity_abs="0"/>
    </tripinfo>
    <tripinfo id="veh106" depart="15.00" departLane="-103230612#7_0" departPos="5.10" departSpeed="0.00" departDelay="0.38" arrival="112.00" arrivalLane="1124385971#1_1" arrivalPos="20.15" arrivalSpeed="20.95" duration="97.00" routeLength="1319.10" waitingTime="1.00" waitingCount="1" stopTime="0.00" timeLoss="35.88" rerouteNo="1" devices="tripinfo_veh106 routing_veh106 emissions_veh106" vType="veh_passenger" speedFactor="0.97" vaporized="">
        <emissions CO_abs="8975.335079" CO2_abs="532572.373998" HC_abs="53.740083" PMx_abs="11.184445" NOx_abs="224.620167" fuel_abs="169864.939791" electricity_abs="0"/>
    </tripinfo>
    <tripinfo id="veh25" depart="4.00" departLane="-105578139#0_0" departPos="5.10" departSpeed="0.00" departDelay="0.55" arrival="114.00" arrivalLane="-104227921#0_0" arrivalPos="97.37" arrivalSpeed="11.05" duration="110.00" routeLength="964.92" waitingTime="0.00" waitingCount="0" stopTime="0.00" timeLoss="11.08" rerouteNo="1" devices="tripinfo_veh25 routing_veh25 emissions_veh25" vType="veh_passenger" speedFactor="0.83" vaporized="">
        <emissions CO_abs="4118.837785" CO2_abs="251865.253730" HC_abs="24.461173" PMx_abs="3.523787" NOx_abs="97.497755" fuel_abs="80334.617572" electricity_abs="0"/>
    </tripinfo>
    <tripinfo id="veh63" depart="9.00" departLane="113752026#1_0" departPos="5.10" departSpeed="0.00" departDelay="0.31" arrival="115.00" arrivalLane="102023536#9_0" arrivalPos="13.20" arrivalSpeed="10.90" duration="106.00" routeLength="1555.42" waitingTime="0.00" waitingCount="0" stopTime="0.00" timeLoss="34.60" rerouteNo="1" devices="tripinfo_veh63 routing_veh63 emissions_veh63" vType="veh_passenger" speedFactor="1.12" vaporized="">
        <emissions CO_abs="9413.902034" CO2_abs="574807.563134" HC_abs="56.779684" PMx_abs="12.161933" NOx_abs="240.035949" fuel_abs="183335.890228" electricity_abs="0"/>
    </tripinfo>
    <tripinfo id="veh105" depart="15.00" departLane="-540134654#1_0" departPos="4.68" departSpeed="0.00" departDelay="0.52" arrival="115.00" arrivalLane="992291721#5_1" arrivalPos="73.39" arrivalSpeed="25.92" duration="100.00" routeLength="1409.08" waitingTime="3.00" waitingCount="2" stopTime="0.00" timeLoss="39.63" rerouteNo="1" devices="tripinfo_veh105 routing_veh105 emissions_veh105" vType="veh_passenger" speedFactor="0.96" vaporized="">
        <emissions CO_abs="9733.466454" CO2_abs="547854.477637" HC_abs="57.515141" PMx_abs="11.713709" NOx_abs="229.677414" fuel_abs="174739.463252" electricity_abs="0"/>
    </tripinfo>
    <tripinfo id="veh113" depart="16.00" departLane="102192909#13_0" departPos="5.10" departSpeed="0.00" departDelay="0.41" arrival="115.00" arrivalLane="-104227901#1_0" arrivalPos="37.40" arrivalSpeed="13.59" duration="99.00" routeLength="1296.07" waitingTime="2.00" waitingCount="1" stopTime="0.00" timeLoss="41.28" rerouteNo="1" devices="tripinfo_veh113 routing_veh113 emissions_veh113" vType="veh_passenger" speedFactor="0.96" vaporized="">
        <emissions CO_abs="9134.788423" CO2_abs="548080.108300" HC_abs="54.643644" PMx_abs="11.362186" NOx_abs="230.938593" fuel_abs="174811.160831" electricity_abs="0"/>
    </tripinfo>
    <tripinfo id="veh165" depart="23.00" departLane="1102881626#0_0" departPos="5.10" departSpeed="0.00" departDelay="0.24" arrival="116.00" arrivalLane="1166212048_1" arrivalPos="136.32" arrivalSpeed="24.93" duration="93.00" routeLength="1814.07" waitingTime="0.00" waitingCount="0" stopTime="0.00" timeLoss="35.53" rerouteNo="1" devices="tripinfo_veh165 routing_veh165 emissions_veh165" vType="veh_passenger" speedFactor="1.14" vaporized="">
        <emissions CO_abs="12184.926556" CO2_abs="757166.802231" HC_abs="74.059819" PMx_abs="17.057524" NOx_abs="322.536839" fuel_abs="241498.396865" electricity_abs="0"/>
    </tripinfo>