<?xml version="1.0" encoding="UTF-8"?>

<!-- generated on 2023-05-02 13:22:49 by Eclipse SUMO GUI Version 1.15.0
<configuration xmlns:xsi="http://www.w3.org/2001/XMLSchema-instance" xsi:noNamespaceSchemaLocation="http://sumo.dlr.de/xsd/sumoConfiguration.xsd">

    <input>
        <net-file value="C:\Users\dell\Sumo\b13 c140\osm.net.xml.gz"/>
        <route-files value="C:\Users\dell\Sumo\b13 c140\osm_pt.rou.xml,C:\Users\dell\Sumo\b13 c140\osm.bus.trips.xml,C:\Users\dell\Sumo\b13 c140\osm.passenger.trips.xml"/>
        <additional-files value="C:\Users\dell\Sumo\b13 c140\osm.poly.xml.gz,C:\Users\dell\Sumo\b13 c140\osm_stops.add.xml"/>
    </input>

    <output>
        <emission-output value="C:\Users\dell\Sumo\b13 c140\emissions_c140_b13.xml"/>
        <tripinfo-output value="C:\Users\dell\Sumo\b13 c140\tripinfo_c140_b13.xml"/>
    </output>

    <time>
        <begin value="0"/>
        <end value="600"/>
    </time>

    <processing>
        <ignore-route-errors value="true"/>
    </processing>

    <routing>
        <device.rerouting.adaptation-steps value="18"/>
        <device.rerouting.adaptation-interval value="10"/>
    </routing>

    <report>
        <verbose value="true"/>
        <duration-log.statistics value="true"/>
        <no-step-log value="true"/>
    </report>

    <gui_only>
        <gui-settings-file value="C:\Users\dell\Sumo\b13 c140\osm.view.xml"/>
    </gui_only>

</configuration>
-->

<tripinfos xmlns:xsi="http://www.w3.org/2001/XMLSchema-instance" xsi:noNamespaceSchemaLocation="http://sumo.dlr.de/xsd/tripinfo_file.xsd">
    <tripinfo id="veh38" depart="6.00" departLane="103477632#4_0" departPos="5.10" departSpeed="0.00" departDelay="0.01" arrival="52.00" arrivalLane="-1111799487#2_0" arrivalPos="38.09" arrivalSpeed="17.35" duration="46.00" routeLength="555.58" waitingTime="0.00" waitingCount="0" stopTime="0.00" timeLoss="24.14" rerouteNo="1" devices="tripinfo_veh38 routing_veh38 emissions_veh38" vType="veh_passenger" speedFactor="1.18" vaporized="">
        <emissions CO_abs="4810.494952" CO2_abs="288788.211884" HC_abs="28.882398" PMx_abs="6.081784" NOx_abs="123.817757" fuel_abs="92109.342004" electricity_abs="0"/>
    </tripinfo>
    <tripinfo id="veh9" depart="2.00" departLane="1130603776_0" departPos="5.10" departSpeed="26.05" departDelay="0.58" arrival="55.00" arrivalLane="1102881626#0_0" arrivalPos="35.16" arrivalSpeed="23.08" duration="53.00" routeLength="1254.20" waitingTime="0.00" waitingCount="0" stopTime="0.00" timeLoss="4.40" rerouteNo="1" devices="tripinfo_veh9 routing_veh9 emissions_veh9" vType="veh_passenger" speedFactor="0.94" vaporized="">
        <emissions CO_abs="3011.209024" CO2_abs="274843.684417" HC_abs="20.050284" PMx_abs="5.451942" NOx_abs="103.091903" fuel_abs="87661.963097" electricity_abs="0"/>
    </tripinfo>
    <tripinfo id="veh26" depart="5.00" departLane="103594716#6_0" departPos="5.10" departSpeed="0.00" departDelay="0.90" arrival="63.00" arrivalLane="1124391477_0" arrivalPos="52.67" arrivalSpeed="14.76" duration="58.00" routeLength="1063.52" waitingTime="0.00" waitingCount="0" stopTime="0.00" timeLoss="12.57" rerouteNo="1" devices="tripinfo_veh26 routing_veh26 emissions_veh26" vType="veh_passenger" speedFactor="0.87" vaporized="">
        <emissions CO_abs="3965.564311" CO2_abs="295407.013929" HC_abs="25.099591" PMx_abs="5.921391" NOx_abs="118.036087" fuel_abs="94220.630339" electricity_abs="0"/>
    </tripinfo>
    <tripinfo id="veh18" depart="3.00" departLane="1102881626#2_0" departPos="5.10" departSpeed="0.00" departDelay="0.16" arrival="71.00" arrivalLane="-102015135#2_0" arrivalPos="15.05" arrivalSpeed="20.20" duration="68.00" routeLength="1177.98" waitingTime="1.00" waitingCount="1" stopTime="0.00" timeLoss="16.66" rerouteNo="1" devices="tripinfo_veh18 routing_veh18 emissions_veh18" vType="veh_passenger" speedFactor="0.94" vaporized="">
        <emissions CO_abs="5630.169182" CO2_abs="372311.687625" HC_abs="34.407982" PMx_abs="7.664082" NOx_abs="151.120552" fuel_abs="118749.579181" electricity_abs="0"/>
    </tripinfo>
    <tripinfo id="veh81" depart="13.00" departLane="105738779#1_0" departPos="5.10" departSpeed="0.00" departDelay="0.23" arrival="74.00" arrivalLane="-105738792#0_0" arrivalPos="30.54" arrivalSpeed="21.33" duration="61.00" routeLength="798.22" waitingTime="0.00" waitingCount="0" stopTime="0.00" timeLoss="19.34" rerouteNo="1" devices="tripinfo_veh81 routing_veh81 emissions_veh81" vType="veh_passenger" speedFactor="1.01" vaporized="">
        <emissions CO_abs="5406.895902" CO2_abs="349922.168660" HC_abs="33.034560" PMx_abs="7.185985" NOx_abs="147.528673" fuel_abs="111608.109913" electricity_abs="0"/>
    </tripinfo>
    <tripinfo id="veh53" depart="9.00" departLane="27552926#1_0" departPos="5.10" departSpeed="0.00" departDelay="0.64" arrival="76.00" arrivalLane="-1112459426_0" arrivalPos="51.33" arrivalSpeed="13.38" duration="67.00" routeLength="701.74" waitingTime="0.00" waitingCount="0" stopTime="0.00" timeLoss="8.96" rerouteNo="1" devices="tripinfo_veh53 routing_veh53 emissions_veh53" vType="veh_passenger" speedFactor="1.02" vaporized="">
        <emissions CO_abs="2995.700928" CO2_abs="205936.304640" HC_abs="18.405969" PMx_abs="3.430228" NOx_abs="82.867083" fuel_abs="65684.340312" electricity_abs="0"/>
    </tripinfo>
    <tripinfo id="veh71" depart="12.00" departLane="1032034246#3_0" departPos="5.10" departSpeed="0.00" departDelay="0.81" arrival="78.00" arrivalLane="1124391478_0" arrivalPos="43.79" arrivalSpeed="24.98" duration="66.00" routeLength="701.71" waitingTime="0.00" waitingCount="0" stopTime="0.00" timeLoss="10.00" rerouteNo="1" devices="tripinfo_veh71 routing_veh71 emissions_veh71" vType="veh_passenger" speedFactor="1.02" vaporized="">
        <emissions CO_abs="3355.550611" CO2_abs="232309.410154" HC_abs="20.739024" PMx_abs="4.006379" NOx_abs="93.565351" fuel_abs="74096.070341" electricity_abs="0"/>
    </tripinfo>
    <tripinfo id="veh11" depart="2.00" departLane="-540134654#1_0" departPos="4.68" departSpeed="0.00" departDelay="0.27" arrival="81.00" arrivalLane="-52152402#10_0" arrivalPos="36.60" arrivalSpeed="20.64" duration="79.00" routeLength="1196.02" waitingTime="0.00" waitingCount="0" stopTime="0.00" timeLoss="26.93" rerouteNo="1" devices="tripinfo_veh11 routing_veh11 emissions_veh11" vType="veh_passenger" speedFactor="1.09" vaporized="">
        <emissions CO_abs="7468.390225" CO2_abs="451472.033307" HC_abs="44.983925" PMx_abs="9.674250" NOx_abs="189.346165" fuel_abs="143997.724821" electricity_abs="0"/>
    </tripinfo>
    <tripinfo id="veh49" depart="8.00" departLane="105741941#4_0" departPos="5.10" departSpeed="0.00" departDelay="0.27" arrival="81.00" arrivalLane="1032034246#1_0" arrivalPos="39.07" arrivalSpeed="9.40" duration="73.00" routeLength="1003.60" waitingTime="0.00" waitingCount="0" stopTime="0.00" timeLoss="19.86" rerouteNo="1" devices="tripinfo_veh49 routing_veh49 emissions_veh49" vType="veh_passenger" speedFactor="0.88" vaporized="">
        <emissions CO_abs="4991.529063" CO2_abs="330553.432165" HC_abs="30.433013" PMx_abs="6.394697" NOx_abs="134.474428" fuel_abs="105430.906268" electricity_abs="0"/>
    </tripinfo>
    <tripinfo id="veh21" depart="4.00" departLane="102945916#4_0" departPos="5.10" departSpeed="0.00" departDelay="0.69" arrival="84.00" arrivalLane="-1130841856#3_0" arrivalPos="33.77" arrivalSpeed="21.59" duration="80.00" routeLength="1162.51" waitingTime="0.00" waitingCount="0" stopTime="0.00" timeLoss="31.04" rerouteNo="1" devices="tripinfo_veh21 routing_veh21 emissions_veh21" vType="veh_passenger" speedFactor="1.02" vaporized="">
        <emissions CO_abs="6812.959837" CO2_abs="453407.078965" HC_abs="41.827877" PMx_abs="9.333985" NOx_abs="189.878938" fuel_abs="144614.685188" electricity_abs="0"/>
    </tripinfo>
    <tripinfo id="veh158" depart="25.00" departLane="239266478#1_0" departPos="5.10" departSpeed="0.00" departDelay="0.09" arrival="84.00" arrivalLane="563179860#3_1" arrivalPos="42.78" arrivalSpeed="11.75" duration="59.00" routeLength="974.23" waitingTime="0.00" waitingCount="0" stopTime="0.00" timeLoss="15.19" rerouteNo="1" devices="tripinfo_veh158 routing_veh158 emissions_veh158" vType="veh_passenger" speedFactor="1.07" vaporized="">
        <emissions CO_abs="5176.976961" CO2_abs="320140.646433" HC_abs="31.400845" PMx_abs="6.715968" NOx_abs="129.877017" fuel_abs="102109.724305" electricity_abs="0"/>
    </tripinfo>
    <tripinfo id="veh234" depart="43.00" departLane="102018257#0_0" departPos="5.10" departSpeed="0.00" departDelay="6.11" arrival="85.00" arrivalLane="52085865#30_0" arrivalPos="68.89" arrivalSpeed="10.47" duration="42.00" routeLength="479.88" waitingTime="0.00" waitingCount="0" stopTime="0.00" timeLoss="13.75" rerouteNo="1" devices="tripinfo_veh234 routing_veh234 emissions_veh234" vType="veh_passenger" speedFactor="0.97" vaporized="">
        <emissions CO_abs="2664.181497" CO2_abs="172375.119044" HC_abs="16.107720" PMx_abs="3.158650" NOx_abs="69.998543" fuel_abs="54979.681217" electricity_abs="0"/>
    </tripinfo>
    <tripinfo id="veh8" depart="2.00" departLane="-1130841856#1_0" departPos="5.10" departSpeed="0.00" departDelay="0.74" arrival="86.00" arrivalLane="101943131#0_0" arrivalPos="45.63" arrivalSpeed="15.01" duration="84.00" routeLength="1029.13" waitingTime="0.00" waitingCount="0" stopTime="0.00" timeLoss="30.11" rerouteNo="1" devices="tripinfo_veh8 routing_veh8 emissions_veh8" vType="veh_passenger" speedFactor="0.89" vaporized="">
        <emissions CO_abs="6786.594388" CO2_abs="427452.589274" HC_abs="40.991707" PMx_abs="8.465654" NOx_abs="178.590382" fuel_abs="136336.948204" electricity_abs="0"/>
    </tripinfo>
    <tripinfo id="veh128" depart="21.00" departLane="27552926#2_0" departPos="5.10" departSpeed="0.00" departDelay="0.82" arrival="87.00" arrivalLane="27552926#12_1" arrivalPos="15.33" arrivalSpeed="10.75" duration="66.00" routeLength="668.75" waitingTime="0.00" waitingCount="0" stopTime="0.00" timeLoss="6.49" rerouteNo="1" devices="tripinfo_veh128 routing_veh128 emissions_veh128" vType="veh_passenger" speedFactor="1.02" vaporized="">
        <emissions CO_abs="2034.760898" CO2_abs="149785.630547" HC_abs="12.688487" PMx_abs="2.083313" NOx_abs="57.524235" fuel_abs="47775.208869" electricity_abs="0"/>
    </tripinfo>
    <tripinfo id="veh69" depart="11.00" departLane="-1087118364#8_0" departPos="5.10" departSpeed="0.00" departDelay="0.12" arrival="89.00" arrivalLane="239266478#7_0" arrivalPos="105.03" arrivalSpeed="24.32" duration="78.00" routeLength="806.62" waitingTime="8.00" waitingCount="1" stopTime="0.00" timeLoss="21.10" rerouteNo="1" devices="tripinfo_veh69 routing_veh69 emissions_veh69" vType="veh_passenger" speedFactor="0.91" vaporized="">
        <emissions CO_abs="6352.487153" CO2_abs="325755.185499" HC_abs="36.706176" PMx_abs="6.437939" NOx_abs="135.654080" fuel_abs="103901.169219" electricity_abs="0"/>
    </tripinfo>
    <tripinfo id="veh139" depart="22.00" departLane="-105258720#1_0" departPos="5.10" departSpeed="0.00" departDelay="0.09" arrival="91.00" arrivalLane="-1124391474#0_1" arrivalPos="17.27" arrivalSpeed="13.19" duration="69.00" routeLength="1098.10" waitingTime="0.00" waitingCount="0" stopTime="0.00" timeLoss="15.52" rerouteNo="1" devices="tripinfo_veh139 routing_veh139 emissions_veh139" vType="veh_passenger" speedFactor="1.23" vaporized="">
        <emissions CO_abs="4564.424478" CO2_abs="342261.794090" HC_abs="28.809443" PMx_abs="6.518827" NOx_abs="135.246661" fuel_abs="109165.359616" electricity_abs="0"/>
    </tripinfo>
    <tripinfo id="veh352" depart="56.00" departLane="102945916#1_0" departPos="5.10" departSpeed="0.00" departDelay="0.50" arrival="91.00" arrivalLane="102192909#16_0" arrivalPos="28.38" arrivalSpeed="12.46" duration="35.00" routeLength="409.30" waitingTime="0.00" waitingCount="0" stopTime="0.00" timeLoss="15.92" rerouteNo="1" devices="tripinfo_veh352 routing_veh352 emissions_veh352" vType="veh_passenger" speedFactor="1.11" vaporized="">
        <emissions CO_abs="3388.380394" CO2_abs="202689.832421" HC_abs="20.319150" PMx_abs="4.231402" NOx_abs="86.647363" fuel_abs="64648.212980" electricity_abs="0"/>
    </tripinfo>
    <tripinfo id="veh196" depart="34.00" departLane="-102023543#5_0" departPos="5.10" departSpeed="0.00" departDelay="3.10" arrival="93.00" arrivalLane="103594716#25_0" arrivalPos="73.90" arrivalSpeed="24.09" duration="59.00" routeLength="820.03" waitingTime="6.00" waitingCount="1" stopTime="0.00" timeLoss="23.01" rerouteNo="1" devices="tripinfo_veh196 routing_veh196 emissions_veh196" vType="veh_passenger" speedFactor="0.89" vaporized="">
        <emissions CO_abs="6516.984019" CO2_abs="358565.779637" HC_abs="38.288955" PMx_abs="7.622831" NOx_abs="150.827275" fuel_abs="114365.467705" electricity_abs="0"/>
    </tripinfo>
    <tripinfo id="veh184" depart="30.00" departLane="1124391489#1_0" departPos="5.10" departSpeed="0.00" departDelay="0.99" arrival="95.00" arrivalLane="-105738793#2_0" arrivalPos="33.16" arrivalSpeed="13.77" duration="65.00" routeLength="713.47" waitingTime="0.00" waitingCount="0" stopTime="0.00" timeLoss="12.62" rerouteNo="1" devices="tripinfo_veh184 routing_veh184 emissions_veh184" vType="veh_passenger" speedFactor="1.03" vaporized="">
        <emissions CO_abs="3525.770992" CO2_abs="238485.562242" HC_abs="21.460019" PMx_abs="4.137528" NOx_abs="96.204707" fuel_abs="76065.957581" electricity_abs="0"/>
    </tripinfo>
    <tripinfo id="veh65" depart="11.00" departLane="102192909#6_0" departPos="5.10" departSpeed="0.00" departDelay="0.75" arrival="96.00" arrivalLane="102945909#12_0" arrivalPos="6.09" arrivalSpeed="21.50" duration="85.00" routeLength="1230.65" waitingTime="0.00" waitingCount="0" stopTime="0.00" timeLoss="28.48" rerouteNo="1" devices="tripinfo_veh65 routing_veh65 emissions_veh65" vType="veh_passenger" speedFactor="0.99" vaporized="">
        <emissions CO_abs="7708.862715" CO2_abs="501863.698913" HC_abs="47.158579" PMx_abs="10.487513" NOx_abs="211.323894" fuel_abs="160069.892903" electricity_abs="0"/>
    </tripinfo>
    <tripinfo id="veh215" depart="34.00" departLane="-103021791#4_0" departPos="5.10" departSpeed="0.00" departDelay="0.10" arrival="96.00" arrivalLane="102015151#3_0" arrivalPos="1.56" arrivalSpeed="22.10" duration="62.00" routeLength="950.52" waitingTime="0.00" waitingCount="0" stopTime="0.00" timeLoss="21.63" rerouteNo="1" devices="tripinfo_veh215 routing_veh215 emissions_veh215" vType="veh_passenger" speedFactor="1.00" vaporized="">
        <emissions CO_abs="5969.852997" CO2_abs="381402.972650" HC_abs="36.466528" PMx_abs="8.098219" NOx_abs="159.288002" fuel_abs="121648.968135" electricity_abs="0"/>
    </tripinfo>
    <tripinfo id="veh270" depart="43.00" departLane="1124379127#10_0" departPos="5.10" departSpeed="0.00" departDelay="0.43" arrival="97.00" arrivalLane="-102192907#2_0" arrivalPos="3.76" arrivalSpeed="9.58" duration="54.00" routeLength="560.90" waitingTime="0.00" waitingCount="0" stopTime="0.00" timeLoss="10.84" rerouteNo="1" devices="tripinfo_veh270 routing_veh270 emissions_veh270" vType="veh_passenger" speedFactor="0.75" vaporized="">
        <emissions CO_abs="3047.904892" CO2_abs="189057.790012" HC_abs="18.334989" PMx_abs="3.404650" NOx_abs="77.565231" fuel_abs="60300.777441" electricity_abs="0"/>
    </tripinfo>
    <tripinfo id="veh122" depart="20.00" departLane="105738792#4_0" departPos="5.10" departSpeed="0.00" departDelay="0.77" arrival="102.00" arrivalLane="-113752008#3_0" arrivalPos="15.83" arrivalSpeed="13.07" duration="82.00" routeLength="1110.70" waitingTime="0.00" waitingCount="0" stopTime="0.00" timeLoss="25.52" rerouteNo="1" devices="tripinfo_veh122 routing_veh122 emissions_veh122" vType="veh_passenger" speedFactor="0.99" vaporized="">
        <emissions CO_abs="6209.289755" CO2_abs="400604.300251" HC_abs="37.739678" PMx_abs="8.065689" NOx_abs="166.496937" fuel_abs="127773.505943" electricity_abs="0"/>
    </tripinfo>
    <tripinfo id="veh105" depart="17.00" departLane="-540134654#1_0" departPos="4.68" departSpeed="0.00" departDelay="0.45" arrival="106.00" arrivalLane="992291721#5_1" arrivalPos="73.39" arrivalSpeed="25.43" duration="89.00" routeLength="1409.08" waitingTime="2.00" waitingCount="1" stopTime="0.00" timeLoss="28.96" rerouteNo="1" devices="tripinfo_veh105 routing_veh105 emissions_veh105" vType="veh_passenger" speedFactor="0.96" vaporized="">
        <emissions CO_abs="8245.787538" CO2_abs="496384.559763" HC_abs="49.492053" PMx_abs="10.500606" NOx_abs="205.109884" fuel_abs="158322.937272" electricity_abs="0"/>
    </tripinfo>
    <tripinfo id="veh133" depart="21.00" departLane="-113382310_0" departPos="5.10" departSpeed="0.00" departDelay="0.03" arrival="106.00" arrivalLane="-113752008#0_0" arrivalPos="55.01" arrivalSpeed="14.78" duration="85.00" routeLength="1436.63" waitingTime="2.00" waitingCount="1" stopTime="0.00" timeLoss="28.10" rerouteNo="1" devices="tripinfo_veh133 routing_veh133 emissions_veh133" vType="veh_passenger" speedFactor="1.12" vaporized="">
        <emissions CO_abs="7591.113502" CO2_abs="463588.665512" HC_abs="45.758952" PMx_abs="9.915376" NOx_abs="190.738403" fuel_abs="147862.556015" electricity_abs="0"/>
    </tripinfo>
    <tripinfo id="veh216" depart="35.00" departLane="-105741927#7_0" departPos="5.10" departSpeed="0.00" departDelay="0.95" arrival="106.00" arrivalLane="116237632#19_0" arrivalPos="37.07" arrivalSpeed="13.79" duration="71.00" routeLength="759.70" waitingTime="0.00" waitingCount="0" stopTime="0.00" timeLoss="20.09" rerouteNo="1" devices="tripinfo_veh216 routing_veh216 emissions_veh216" vType="veh_passenger" speedFactor="0.97" vaporized="">
        <emissions CO_abs="4360.624143" CO2_abs="280869.866468" HC_abs="26.398051" PMx_abs="5.055078" NOx_abs="115.003094" fuel_abs="89584.532568" electricity_abs="0"/>
    </tripinfo>
    <tripinfo id="veh463" depart="73.00" departLane="-52152395#0_0" departPos="5.10" departSpeed="0.00" departDelay="0.00" arrival="106.00" arrivalLane="-103010074#4_0" arrivalPos="18.05" arrivalSpeed="16.83" duration="33.00" routeLength="453.95" waitingTime="0.00" waitingCount="0" stopTime="0.00" timeLoss="15.61" rerouteNo="1" devices="tripinfo_veh463 routing_veh463 emissions_veh463" vType="veh_passenger" speedFactor="1.12" vaporized="">
        <emissions CO_abs="4462.500127" CO2_abs="254667.317454" HC_abs="26.538500" PMx_abs="5.652996" NOx_abs="110.003820" fuel_abs="81226.335460" electricity_abs="0"/>
    </tripinfo>
    <tripinfo id="veh60" depart="10.00" departLane="101750899#1_0" departPos="5.10" departSpeed="0.00" departDelay="0.54" arrival="107.00" arrivalLane="-52152279#3_0" arrivalPos="32.26" arrivalSpeed="27.65" duration="97.00" routeLength="1291.86" waitingTime="0.00" waitingCount="0" stopTime="0.00" timeLoss="23.75" rerouteNo="1" devices="tripinfo_veh60 routing_veh60 emissions_veh60" vType="veh_passenger" speedFactor="1.02" vaporized="">
        <emissions CO_abs="7549.070421" CO2_abs="505025.894439" HC_abs="46.384624" PMx_abs="10.146478" NOx_abs="210.110582" fuel_abs="161078.826319" electricity_abs="0"/>
    </tripinfo>
    <tripinfo id="veh70" depart="12.00" departLane="102023536#11_0" departPos="5.10" departSpeed="0.00" departDelay="0.96" arrival="107.00" arrivalLane="105258720#11_0" arrivalPos="45.69" arrivalSpeed="17.82" duration="95.00" routeLength="978.37" waitingTime="0.00" waitingCount="0" stopTime="0.00" timeLoss="23.14" rerouteNo="1" devices="tripinfo_veh70 routing_veh70 emissions_veh70" vType="veh_passenger" speedFactor="1.04" vaporized="">
        <emissions CO_abs="4656.734399" CO2_abs="304734.378979" HC_abs="28.123696" PMx_abs="5.268889" NOx_abs="123.241929" fuel_abs="97196.382384" electricity_abs="0"/>
    </tripinfo>
    <tripinfo id="veh33" depart="6.00" departLane="104777725#9_0" departPos="5.10" departSpeed="0.00" departDelay="0.80" arrival="108.00" arrivalLane="52152395#1_0" arrivalPos="24.04" arrivalSpeed="19.30" duration="102.00" routeLength="1559.24" waitingTime="0.00" waitingCount="0" stopTime="0.00" timeLoss="31.61" rerouteNo="1" devices="tripinfo_veh33 routing_veh33 emissions_veh33" vType="veh_passenger" speedFactor="1.01" vaporized="">
        <emissions CO_abs="9387.513638" CO2_abs="602775.857752" HC_abs="57.364983" PMx_abs="12.687051" NOx_abs="252.625002" fuel_abs="192256.101923" electricity_abs="0"/>
    </tripinfo>
    <tripinfo id="veh100" depart="16.00" departLane="1029381531#9_0" departPos="5.10" departSpeed="0.00" departDelay="0.23" arrival="108.00" arrivalLane="-105258720#5_0" arrivalPos="16.89" arrivalSpeed="26.18" duration="92.00" routeLength="846.35" waitingTime="11.00" waitingCount="1" stopTime="0.00" timeLoss="34.90" rerouteNo="1" devices="tripinfo_veh100 routing_veh100 emissions_veh100" vType="veh_passenger" speedFactor="1.01" vaporized="">
        <emissions CO_abs="7826.029946" CO2_abs="375378.256795" HC_abs="44.499631" PMx_abs="7.508488" NOx_abs="158.284909" fuel_abs="119728.781872" electricity_abs="0"/>
    </tripinfo>
    <tripinfo id="bus4" depart="7.00" departLane="-101943160#8_0" departPos="12.10" departSpeed="0.00" departDelay="0.21" arrival="109.00" arrivalLane="101994129#8_0" arrivalPos="29.11" arrivalSpeed="21.31" duration="102.00" routeLength="1570.02" waitingTime="0.00" waitingCount="0" stopTime="0.00" timeLoss="38.04" rerouteNo="1" devices="tripinfo_bus4 routing_bus4 emissions_bus4" vType="bus_bus" speedFactor="1.00" vaporized="">
        <emissions CO_abs="4338.020277" CO2_abs="3297986.383521" HC_abs="774.445944" PMx_abs="471.368412" NOx_abs="24148.673556" fuel_abs="1043724.919795" electricity_abs="0"/>
    </tripinfo>
    <tripinfo id="veh104" depart="17.00" departLane="102192909#7_0" departPos="5.10" departSpeed="0.00" departDelay="0.60" arrival="109.00" arrivalLane="102023543#3_0" arrivalPos="27.18" arrivalSpeed="22.97" duration="92.00" routeLength="1647.53" waitingTime="0.00" waitingCount="0" stopTime="0.00" timeLoss="30.42" rerouteNo="1" devices="tripinfo_veh104 routing_veh104 emissions_veh104" vType="veh_passenger" speedFactor="1.06" vaporized="">
        <emissions CO_abs="10528.404329" CO2_abs="665631.637827" HC_abs="64.292512" PMx_abs="14.552543" NOx_abs="278.886483" fuel_abs="212303.807100" electricity_abs="0"/>
    </tripinfo>
    <tripinfo id="veh283" depart="45.00" departLane="-1124391474#2_1" departPos="5.10" departSpeed="0.00" departDelay="0.38" arrival="109.00" arrivalLane="-1130841856#6_0" arrivalPos="26.21" arrivalSpeed="22.75" duration="64.00" routeLength="1153.67" waitingTime="0.00" waitingCount="0" stopTime="0.00" timeLoss="16.76" rerouteNo="1" devices="tripinfo_veh283 routing_veh283 emissions_veh283" vType="veh_passenger" speedFactor="1.05" vaporized="">
        <emissions CO_abs="7373.097219" CO2_abs="463265.784042" HC_abs="44.891334" PMx_abs="10.149587" NOx_abs="195.403949" fuel_abs="147758.931961" electricity_abs="0"/>
    </tripinfo>
    <tripinfo id="veh77" depart="13.00" departLane="-105605195_1" departPos="5.10" departSpeed="0.00" departDelay="0.86" arrival="110.00" arrivalLane="-105578115#1_0" arrivalPos="18.12" arrivalSpeed="12.84" duration="97.00" routeLength="1722.57" waitingTime="0.00" waitingCount="0" stopTime="0.00" timeLoss="14.00" rerouteNo="1" devices="tripinfo_veh77 routing_veh77 emissions_veh77" vType="veh_passenger" speedFactor="0.96" vaporized="">
        <emissions CO_abs="5193.552844" CO2_abs="409419.195357" HC_abs="33.465606" PMx_abs="7.878212" NOx_abs="158.918677" fuel_abs="130585.437309" electricity_abs="0"/>
    </tripinfo>
    <tripinfo id="veh334" depart="53.00" departLane="-104777725#1_0" departPos="5.10" departSpeed="0.00" departDelay="0.34" arrival="111.00" arrivalLane="-105258720#1_0" arrivalPos="12.91" arrivalSpeed="7.87" duration="58.00" routeLength="729.04" waitingTime="0.00" waitingCount="0" stopTime="0.00" timeLoss="16.95" rerouteNo="1" devices="tripinfo_veh334 routing_veh334 emissions_veh334" vType="veh_passenger" speedFactor="0.82" vaporized="">
        <emissions CO_abs="3432.855852" CO2_abs="229418.950637" HC_abs="20.959599" PMx_abs="4.295527" NOx_abs="93.395675" fuel_abs="73173.897013" electricity_abs="0"/>
    </tripinfo>
    <tripinfo id="veh63" depart="10.00" departLane="113752026#1_0" departPos="5.10" departSpeed="0.00" departDelay="0.07" arrival="112.00" arrivalLane="102023536#9_0" arrivalPos="13.20" arrivalSpeed="9.09" duration="102.00" routeLength="1555.42" waitingTime="0.00" waitingCount="0" stopTime="0.00" timeLoss="30.87" rerouteNo="1" devices="tripinfo_veh63 routing_veh63 emissions_veh63" vType="veh_passenger" speedFactor="1.12" vaporized="">
        <emissions CO_abs="8903.174903" CO2_abs="560890.388292" HC_abs="54.062460" PMx_abs="11.792908" NOx_abs="232.785278" fuel_abs="178896.948445" electricity_abs="0"/>
    </tripinfo>
    <tripinfo id="veh82" depart="15.00" departLane="-105258720#12_0" departPos="5.10" departSpeed="0.00" departDelay="2.07" arrival="112.00" arrivalLane="-1032034246#6_0" arrivalPos="16.80" arrivalSpeed="11.26" duration="97.00" routeLength="1564.42" waitingTime="0.00" waitingCount="0" stopTime="0.00" timeLoss="21.21" rerouteNo="1" devices="tripinfo_veh82 routing_veh82 emissions_veh82" vType="veh_passenger" speedFactor="1.09" vaporized="">
        <emissions CO_abs="6164.553814" CO2_abs="450155.771994" HC_abs="38.675250" PMx_abs="8.803380" NOx_abs="180.151477" fuel_abs="143578.219571" electricity_abs="0"/>
    </tripinfo>
    <tripinfo id="veh165" depart="27.00" departLane="1102881626#0_0" departPos="5.10" departSpeed="0.00" departDelay="0.99" arrival="112.00" arrivalLane="1166212048_1" arrivalPos="136.32" arrivalSpeed="29.60" duration="85.00" routeLength="1814.07" waitingTime="0.00" waitingCount="0" stopTime="0.00" timeLoss="27.14" rerouteNo="1" devices="tripinfo_veh165 routing_veh165 emissions_veh165" vType="veh_passenger" speedFactor="1.14" vaporized="">
        <emissions CO_abs="12799.631416" CO2_abs="770558.164562" HC_abs="77.373791" PMx_abs="17.834618" NOx_abs="330.101205" fuel_abs="245769.418168" electricity_abs="0"/>
    </tripinfo>
    <tripinfo id="veh449" depart="73.00" departLane="105258720#4_0" departPos="5.10" departSpeed="0.00" departDelay="2.21" arrival="113.00" arrivalLane="104777725#0_0" arrivalPos="2.48" arrivalSpeed="10.65" duration="40.00" routeLength="605.51" waitingTime="0.00" waitingCount="0" stopTime="0.00" timeLoss="12.87" rerouteNo="1" devices="tripinfo_veh449 routing_veh449 emissions_veh449" vType="veh_passenger" speedFactor="1.06" vaporized="">
        <emissions CO_abs="3812.087003" CO2_abs="229785.377631" HC_abs="22.950621" PMx_abs="4.906789" NOx_abs="97.195870" fuel_abs="73290.367853" electricity_abs="0"/>
    </tripinfo>
    <tripinfo id="veh148" depart="24.00" departLane="52085865#21_0" departPos="5.10" departSpeed="0.00" departDelay="0.67" arrival="114.00" arrivalLane="103230516#0_0" arrivalPos="76.81" arrivalSpeed="17.50" duration="90.00" routeLength="1370.86" waitingTime="0.00" waitingCount="0" stopTime="0.00" timeLoss="20.84" rerouteNo="1" devices="tripinfo_veh148 routing_veh148 emissions_veh148" vType="veh_passenger" speedFactor="1.13" vaporized="">
        <emissions CO_abs="7453.435865" CO2_abs="495139.623686" HC_abs="45.905256" PMx_abs="10.248986" NOx_abs="206.031367" fuel_abs="157925.442188" electricity_abs="0"/>
    </tripinfo>
    <tripinfo id="veh279" depart="53.00" departLane="1102881626#0_1" departPos="5.10" departSpeed="0.00" departDelay="9.01" arrival="114.00" arrivalLane="-540139649#1_0" arrivalPos="19.02" arrivalSpeed="9.99" duration="61.00" routeLength="1034.31" waitingTime="0.00" waitingCount="0" stopTime="0.00" timeLoss="18.08" rerouteNo="1" devices="tripinfo_veh279 routing_veh279 emissions_veh279" vType="veh_passenger" speedFactor="0.96" vaporized="">
        <emissions CO_abs="5659.885763" CO2_abs="369784.446794" HC_abs="34.756603" PMx_abs="7.882786" NOx_abs="155.078748" fuel_abs="117943.055392" electricity_abs="0"/>
    </tripinfo>
    <tripinfo id="veh379" depart="64.00" departLane="103477652#0_0" departPos="5.10" departSpeed="0.00" departDelay="4.25" arrival="114.00" arrivalLane="103230612#11_0" arrivalPos="17.67" arrivalSpeed="10.09" duration="50.00" routeLength="666.38" waitingTime="0.00" waitingCount="0" stopTime="0.00" timeLoss="11.96" rerouteNo="1" devices="tripinfo_veh379 routing_veh379 emissions_veh379" vType="veh_passenger" speedFactor="1.00" vaporized="">
        <emissions CO_abs="3541.571376" CO2_abs="236220.152316" HC_abs="21.746282" PMx_abs="4.672575" NOx_abs="98.197403" fuel_abs="75342.869129" electricity_abs="0"/>
    </tripinfo>
    <tripinfo id="veh292" depart="47.00" departLane="-105019300#2_0" departPos="5.10" departSpeed="0.00" departDelay="0.96" arrival="115.00" arrivalLane="1127845532#1_0" arrivalPos="76.64" arrivalSpeed="11.98" duration="68.00" routeLength="940.66" waitingTime="0.00" waitingCount="0" stopTime="0.00" timeLoss="15.94" rerouteNo="1" devices="tripinfo_veh292 routing_veh292 emissions_veh292" vType="veh_passenger" speedFactor="1.08" vaporized="">
        <emissions CO_abs="4276.970644" CO2_abs="302812.719673" HC_abs="26.537358" PMx_abs="5.812209" NOx_abs="123.797561" fuel_abs="96582.773763" electricity_abs="0"/>
    </tripinfo>
    <tripinfo id="veh90" depart="15.00" departLane="-101999555#1_0" departPos="5.10" departSpeed="0.00" departDelay="0.81" arrival="117.00" arrivalLane="-52152402#8_0" arrivalPos="27.37" arrivalSpeed="26.96" duration="102.00" routeLength="1587.84" waitingTime="0.00" waitingCount="0" stopTime="0.00" timeLoss="27.60" rerouteNo="1" devices="tripinfo_veh90 routing_veh90 emissions_veh90" vType="veh_passenger" speedFactor="1.00" vaporized="">
        <emissions CO_abs="8505.773289" CO2_abs="566402.703565" HC_abs="52.368995" PMx_abs="11.770699" NOx_abs="236.441082" fuel_abs="180654.793691" electricity_abs="0"/>
    </tripinfo>